                  Welcome to Q-Chem
     A Quantum Leap Into The Future Of Chemistry


 Q-Chem 5.2 (devel), Q-Chem, Inc., Pleasanton, CA (2019)

 Yihan Shao,  Zhengting Gan,  E. Epifanovsky,  A. T. B. Gilbert,  M. Wormit,  
 J. Kussmann,  A. W. Lange,  A. Behn,  Jia Deng,  Xintian Feng,  D. Ghosh,  
 M. Goldey,  P. R. Horn,  L. D. Jacobson,  I. Kaliman,  T. Kus,  A. Landau,  
 Jie Liu,  E. I. Proynov,  R. M. Richard,  R. P. Steele,  E. J. Sundstrom,  
 H. L. Woodcock III,  P. M. Zimmerman,  D. Zuev,  B. Albrecht,  E. Alguire,  
 S. A. Baeppler,  D. Barton,  Z. Benda,  Y. A. Bernard,  E. J. Berquist,  
 K. B. Bravaya,  H. Burton,  D. Casanova,  Chun-Min Chang,  Yunqing Chen,  
 A. Chien,  K. D. Closser,  M. P. Coons,  S. Coriani,  S. Dasgupta,  
 A. L. Dempwolff,  M. Diedenhofen,  Hainam Do,  R. G. Edgar,  Po-Tung Fang,  
 S. Faraji,  S. Fatehi,  Qingguo Feng,  K. D. Fenk,  J. Fosso-Tande,  
 J. Gayvert,  Qinghui Ge,  A. Ghysels,  G. Gidofalvi,  J. Gomes,  
 J. Gonthier,  A. Gunina,  D. Hait,  M. W. D. Hanson-Heine,  
 P. H. P. Harbach,  A. W. Hauser,  M. F. Herbst,  J. E. Herr,  
 E. G. Hohenstein,  Z. C. Holden,  Kerwin Hui,  B. C. Huynh,  T.-C. Jagau,  
 Hyunjun Ji,  B. Kaduk,  K. Khistyaev,  Jaehoon Kim,  P. Klunzinger,  K. Koh,  
 D. Kosenkov,  L. Koulias,  T. Kowalczyk,  C. M. Krauter,  A. Kunitsa,  
 Ka Un Lao,  A. Laurent,  K. V. Lawler,  Joonho Lee,  D. Lefrancois,  
 S. Lehtola,  D. S. Levine,  Yi-Pei Li,  You-Sheng Lin,  Fenglai Liu,  
 E. Livshits,  A. Luenser,  P. Manohar,  E. Mansoor,  S. F. Manzer,  
 Shan-Ping Mao,  Yuezhi Mao,  N. Mardirossian,  A. V. Marenich,  
 T. Markovich,  L. A. Martinez-Martinez,  S. A. Maurer,  N. J. Mayhall,  
 S. C. McKenzie,  J.-M. Mewes,  P. Morgante,  A. F. Morrison,  
 J. W. Mullinax,  K. Nanda,  T. S. Nguyen-Beck,  R. Olivares-Amaya,  
 J. A. Parkhill,  Zheng Pei,  T. M. Perrine,  F. Plasser,  P. Pokhilko,  
 S. Prager,  A. Prociuk,  E. Ramos,  D. R. Rehn,  F. Rob,  M. Scheurer,  
 M. Schneider,  N. Sergueev,  S. M. Sharada,  S. Sharma,  D. W. Small,  
 T. Stauch,  T. Stein,  Yu-Chuan Su,  A. J. W. Thom,  A. Tkatchenko,  
 T. Tsuchimochi,  N. M. Tubman,  L. Vogt,  M. L. Vidal,  O. Vydrov,  
 M. A. Watson,  J. Wenzel,  M. de Wergifosse,  T. A. Wesolowski,  A. White,  
 J. Witte,  A. Yamada,  Jun Yang,  K. Yao,  S. Yeganeh,  S. R. Yost,  
 Zhi-Qiang You,  A. Zech,  Igor Ying Zhang,  Xing Zhang,  Yan Zhao,  
 Ying Zhu,  B. R. Brooks,  G. K. L. Chan,  C. J. Cramer,  M. S. Gordon,  
 W. J. Hehre,  A. Klamt,  M. W. Schmidt,  C. D. Sherrill,  D. G. Truhlar,  
 A. Aspuru-Guzik,  R. Baer,  A. T. Bell,  N. A. Besley,  Jeng-Da Chai,  
 A. E. DePrince, III,  R. A. DiStasio Jr.,  A. Dreuw,  B. D. Dunietz,  
 T. R. Furlani,  Chao-Ping Hsu,  Yousung Jung,  Jing Kong,  D. S. Lambrecht,  
 WanZhen Liang,  C. Ochsenfeld,  V. A. Rassolov,  L. V. Slipchenko,  
 J. E. Subotnik,  T. Van Voorhis,  J. M. Herbert,  A. I. Krylov,  
 P. M. W. Gill,  M. Head-Gordon

 Contributors to earlier versions of Q-Chem not listed above: 
 R. D. Adamson,  B. Austin,  J. Baker,  G. J. O. Beran,  K. Brandhorst,  
 S. T. Brown,  E. F. C. Byrd,  A. K. Chakraborty,  C.-L. Cheng,  
 Siu Hung Chien,  D. M. Chipman,  D. L. Crittenden,  H. Dachsel,  
 R. J. Doerksen,  A. D. Dutoi,  L. Fusti-Molnar,  W. A. Goddard III,  
 A. Golubeva-Zadorozhnaya,  S. R. Gwaltney,  G. Hawkins,  A. Heyden,  
 S. Hirata,  G. Kedziora,  F. J. Keil,  C. Kelley,  Jihan Kim,  R. A. King,  
 R. Z. Khaliullin,  P. P. Korambath,  W. Kurlancheek,  A. M. Lee,  M. S. Lee,  
 S. V. Levchenko,  Ching Yeh Lin,  D. Liotard,  R. C. Lochan,  I. Lotan,  
 P. E. Maslen,  N. Nair,  D. P. O'Neill,  D. Neuhauser,  E. Neuscamman,  
 C. M. Oana,  R. Olson,  B. Peters,  R. Peverati,  P. A. Pieniazek,  
 Y. M. Rhee,  J. Ritchie,  M. A. Rohrdanz,  E. Rosta,  N. J. Russ,  
 H. F. Schaefer III,  N. E. Schultz,  N. Shenvi,  A. C. Simmonett,  A. Sodt,  
 D. Stuck,  K. S. Thanthiriwatte,  V. Vanovschi,  Tao Wang,  A. Warshel,  
 C. F. Williams,  Q. Wu,  X. Xu,  W. Zhang

 Please cite Q-Chem as follows:
 Y. Shao et al., Mol. Phys. 113, 184-215 (2015)
 DOI: 10.1080/00268976.2014.952696

 Q-Chem 5.2.1 for Mac (Intel) OS X

 Parts of Q-Chem use Armadillo 8.300.2 (Tropical Shenanigans).
 http://arma.sourceforge.net/

 Q-Chem begins on Fri Feb 12 16:24:25 2021  

Host: Tims-MBP.fritz.box
0

     Scratch files written to /Users/tim/qchem/scratch/qchem54668//
NAlpha2: 88
NElect   88
Mult     1

Checking the input file for inconsistencies... 	...done.

--------------------------------------------------------------
User input:
--------------------------------------------------------------
$molecule
-2 1
O       19.41799684       8.77249819       3.15257656
O       19.43086489       8.77266989       5.68292238
O       21.45915125       9.71201801       4.41124395
O       19.41507821       3.10979154       5.52744298
O       19.38434670       3.11617926       3.26074864
H       21.94873102       7.11342822       3.50141814
H       21.97091763       7.11502872       5.28775314
H       21.72915763       4.25998731       5.25892925
H       21.68251028       4.29139331       3.45553640
H       19.87355542       5.85877097       5.24103255
H       19.83025408       5.87616120       3.61212352
C       21.10490600       4.42225952       4.37525555
C       21.32512314       7.07350158       4.40256749
C       19.88223011       3.44379107       4.38982212
N       20.53341044       5.81460743       4.41218631
P       20.35308040       8.69432984       4.41120287
$end

$rem
jobtype	freq
method	pbe
basis	cc-pvdz
vibman_print	7
sym_ignore	true
$end
--------------------------------------------------------------
 ----------------------------------------------------------------
             Standard Nuclear Orientation (Angstroms)
    I     Atom           X                Y                Z
 ----------------------------------------------------------------
    1      O      19.4179968400     8.7724981900     3.1525765600
    2      O      19.4308648900     8.7726698900     5.6829223800
    3      O      21.4591512500     9.7120180100     4.4112439500
    4      O      19.4150782100     3.1097915400     5.5274429800
    5      O      19.3843467000     3.1161792600     3.2607486400
    6      H      21.9487310200     7.1134282200     3.5014181400
    7      H      21.9709176300     7.1150287200     5.2877531400
    8      H      21.7291576300     4.2599873100     5.2589292500
    9      H      21.6825102800     4.2913933100     3.4555364000
   10      H      19.8735554200     5.8587709700     5.2410325500
   11      H      19.8302540800     5.8761612000     3.6121235200
   12      C      21.1049060000     4.4222595200     4.3752555500
   13      C      21.3251231400     7.0735015800     4.4025674900
   14      C      19.8822301100     3.4437910700     4.3898221200
   15      N      20.5334104400     5.8146074300     4.4121863100
   16      P      20.3530804000     8.6943298400     4.4112028700
 ----------------------------------------------------------------
 Nuclear Repulsion Energy =         627.26924628 hartrees
 There are       44 alpha and       44 beta electrons
 Requested basis set is cc-pVDZ
 There are 80 shells and 174 basis functions

 Total QAlloc Memory Limit   2000 MB
 Mega-Array Size       204 MB
 MEM_STATIC part       192 MB
 A cutoff of  1.0D-11 yielded   2640 shell pairs
 There are     12294 function pairs (     13657 Cartesian)
 Smallest overlap matrix eigenvalue = 4.56E-03
 Guess from superposition of atomic densities
 Warning:  Energy on first SCF cycle will be non-variational
 SAD guess density has 86.000000 electrons

 -----------------------------------------------------------------------
  General SCF calculation program by
  Eric Jon Sundstrom, Paul Horn, Yuezhi Mao, Dmitri Zuev, Alec White,
  David Stuck, Shaama M.S., Shane Yost, Joonho Lee, David Small,
  Daniel Levine, Susi Lehtola, Hugh Burton, Evgeny Epifanovsky,
  Bang C. Huynh
 -----------------------------------------------------------------------
 Exchange:  PBE      Correlation:  PBE
 Using SG-1 standard quadrature grid
 using 12 threads for integral computing
 -------------------------------------------------------
 OpenMP Integral computing Module                
 Release: version 1.0, May 2013, Q-Chem Inc. Pittsburgh 
 -------------------------------------------------------
 A restricted SCF calculation will be
 performed using DIIS
 SCF converges when DIIS error is below 1.0e-08
 ---------------------------------------
  Cycle       Energy         DIIS error
 ---------------------------------------
    1    -890.8681300258      5.51e-02  
    2    -888.8133365381      1.37e-02  
    3    -870.6069276377      5.56e-02  
    4    -888.9247364615      1.12e-02  
    5    -889.3491675824      4.19e-03  
    6    -889.3919639767      1.84e-03  
    7    -889.4025171932      6.23e-04  
    8    -889.4036603631      3.22e-04  
    9    -889.4039362994      1.29e-04  
   10    -889.4039793062      6.11e-05  
   11    -889.4039893952      2.55e-05  
   12    -889.4039913092      7.49e-06  
   13    -889.4039914713      2.12e-06  
   14    -889.4039914841      9.24e-07  
   15    -889.4039914862      4.16e-07  
   16    -889.4039914868      3.91e-08  
   17    -889.4039914868      1.57e-08  
   18    -889.4039914868      4.16e-09  Convergence criterion met
 ---------------------------------------
 SCF time:   CPU 122.01s  wall 11.00s 
 SCF   energy in the final basis set =     -889.4039914868
 Total energy in the final basis set =     -889.4039914868

 --------------------------------------------------------------

                    Orbital Energies (a.u.)
 --------------------------------------------------------------

 Alpha MOs
 -- Occupied --
-76.0353 -18.4388 -18.4382 -18.3325 -18.3235 -18.3224 -13.8599  -9.7129
 -9.7021  -9.6533  -6.0046  -4.2241  -4.2219  -4.2217  -0.6682  -0.6442
 -0.5723  -0.5243  -0.4468  -0.4255  -0.4231  -0.3557  -0.2612  -0.2326
 -0.1967  -0.1607  -0.1399  -0.1015  -0.0926  -0.0899  -0.0672  -0.0653
  0.0032   0.0457   0.0505   0.0611   0.0689   0.0917   0.1244   0.1309
  0.1367   0.1511   0.1665   0.1999
 -- Virtual --
  0.2457   0.2718   0.2880   0.2891   0.3203   0.3305   0.3583   0.3731
  0.3991   0.4127   0.4623   0.4907   0.5230   0.5331   0.5419   0.5529
  0.6180   0.6281   0.6602   0.6825   0.7450   0.7466   0.7544   0.7671
  0.7770   0.7880   0.7899   0.8060   0.8246   0.8261   0.8578   0.8643
  0.8658   0.8805   0.9009   0.9366   0.9460   0.9707   1.0433   1.0481
  1.0907   1.0929   1.1045   1.1144   1.1437   1.1916   1.2195   1.2420
  1.2768   1.2908   1.2973   1.3118   1.3312   1.3463   1.3561   1.3605
  1.3833   1.3888   1.4013   1.4248   1.4368   1.4431   1.4720   1.5162
  1.5243   1.5537   1.5600   1.6296   1.7164   1.7173   1.7685   1.8066
  1.8124   1.8218   1.8303   1.8600   1.8806   1.8974   1.9258   1.9655
  1.9849   2.0447   2.0747   2.0885   2.1051   2.1070   2.1897   2.1990
  2.2243   2.2650   2.2942   2.3312   2.3712   2.3738   2.4150   2.4366
  2.5296   2.5387   2.6068   2.6157   2.6741   2.7083   2.8236   2.8262
  2.8556   2.8686   2.8840   2.9181   2.9190   2.9319   2.9394   2.9407
  2.9452   2.9580   2.9745   3.0273   3.0633   3.1294   3.1441   3.1796
  3.2940   3.2979   3.3201   3.3681   3.4177   3.5238   3.5420   3.5735
  3.5839   3.6746
 --------------------------------------------------------------

          Ground-State Mulliken Net Atomic Charges

     Atom                 Charge (a.u.)
  ----------------------------------------
      1 O                    -0.632275
      2 O                    -0.634903
      3 O                    -0.596237
      4 O                    -0.392299
      5 O                    -0.394442
      6 H                     0.000432
      7 H                    -0.000004
      8 H                    -0.010859
      9 H                    -0.009808
     10 H                     0.102311
     11 H                     0.105562
     12 C                     0.099760
     13 C                    -0.133158
     14 C                    -0.037387
     15 N                     0.033235
     16 P                     0.500073
  ----------------------------------------
  Sum of atomic charges =    -2.000000

 -----------------------------------------------------------------
                    Cartesian Multipole Moments
 -----------------------------------------------------------------
    Charge (ESU x 10^10)
                -9.6064
    Dipole Moment (Debye)
         X    -189.3877      Y     -69.6087      Z     -42.3521
       Tot     206.1718
    Quadrupole Moments (Debye-Ang)
        XX   -3811.3188     XY   -1389.9587     YY    -667.1176
        XZ    -835.1117     YZ    -307.2581     ZZ    -270.8990
    Octopole Moments (Debye-Ang^2)
       XXX  -78335.0125    XXY  -28287.8689    XYY  -13438.1023
       YYY   -6817.3192    XXZ  -16808.5665    XYZ   -6135.9504
       YYZ   -2945.4588    XZZ   -5374.4640    YZZ   -1907.5196
       ZZZ   -1935.3816
    Hexadecapole Moments (Debye-Ang^3)
      XXXX ************   XXXY -586777.4021   XXYY -274870.8704
      XYYY -138081.6699   YYYY  -70907.9654   XXXZ -345505.1902
      XXYZ -124883.0754   XYYZ  -59334.0296   YYYZ  -30100.3634
      XXZZ -108250.6117   XYZZ  -38200.2472   YYZZ  -17212.3367
      XZZZ  -38593.4328   YZZZ  -13276.7904   ZZZZ  -13744.9442
 -----------------------------------------------------------------
 Calculating MO derivatives via CPSCF
    1     0    51    0.0431109  
    2     0    51    0.0040151  
    3     0    51    0.0003434  
    4    44     7    0.0000093  
    5    51     0    0.0000002  Converged
 Time for AOints: 16.0 s (CPU) 2.0 s (wall)
 ------------------------------------------------------------------------------
                     AOints        : Timing summary (seconds)
 ------------------------------------------------------------------------------
     job step          cpu (% of tot)      sys (% of tot)     wall (% of tot)
 ------------------------------------------------------------------------------
  AOints            0.1598E+02 ( 2.7)   0.3700E-04 ( 0.3)   0.2008E+01 ( 3.5)
 ------------------------------------------------------------------------------
   Grand Totals     0.5845E+03          0.1255E-01          0.5748E+02
 ------------------------------------------------------------------------------
 Polarizability Matrix (a.u.)
            1           2           3
    1 -73.5598246  -4.9678227  -0.1093862
    2  -4.9678227-128.9122540  -0.2320236
    3  -0.1093862  -0.2320236 -73.9084309
 Calculating analytic Hessian of the SCF energy

 Direct stationary perturbation theory relativistic correction:

 rels  =       0.628745641520
 relv  =      -2.631461437686
 rel2e =       0.000000000000
 E_rel =      -2.002715796166

 Hessian of the SCF Energy
            1           2           3           4           5           6
    1   0.1740292  -0.0008772   0.1738513   0.0151431   0.0010578   0.0120860
    2  -0.0008772   0.0302740  -0.0112430   0.0010103   0.0164117  -0.0033801
    3   0.1738513  -0.0112430   0.3032497  -0.0126939   0.0033377  -0.0435636
    4   0.0151431   0.0010103  -0.0126939   0.1685575  -0.0000399  -0.1689061
    5   0.0010578   0.0164117   0.0033377  -0.0000399   0.0307405   0.0106570
    6   0.0120860  -0.0033801  -0.0435636  -0.1689061   0.0106570   0.3024508
    7  -0.0148075  -0.0213349  -0.0109912  -0.0148544  -0.0214286   0.0113939
    8  -0.0058172   0.0081917  -0.0002784  -0.0061240   0.0081527   0.0003594
    9  -0.0264591  -0.0177599   0.0031097   0.0269351   0.0179699   0.0026409
   10   0.0009451  -0.0004032   0.0001935   0.0013034  -0.0000825  -0.0010583
   11   0.0004000  -0.0002494   0.0005552   0.0001083  -0.0004790   0.0002173
   12  -0.0001321   0.0004839   0.0009469  -0.0010750  -0.0004205   0.0018231
   13   0.0013599  -0.0000873   0.0010986   0.0009551  -0.0004046  -0.0001883
   14   0.0000893  -0.0004960  -0.0002305   0.0003882  -0.0002449  -0.0005595
   15   0.0010697   0.0004071   0.0017870   0.0001284  -0.0004722   0.0009432
   16   0.0018009  -0.0010128  -0.0026305  -0.0010928   0.0030581  -0.0004675
   17  -0.0016010   0.0005831   0.0021799   0.0027526  -0.0037999   0.0001084
   18   0.0001787   0.0002313   0.0014304   0.0003569  -0.0012054   0.0019791
   19  -0.0010899   0.0030930   0.0005091   0.0017898  -0.0009619   0.0026163
   20   0.0027796  -0.0038522  -0.0001275  -0.0015742   0.0005139  -0.0021202
   21  -0.0003490   0.0011677   0.0019672  -0.0002070  -0.0001994   0.0013545
   22   0.0001674   0.0002609   0.0001708  -0.0000252   0.0000319   0.0002339
   23  -0.0004982  -0.0003643  -0.0004121  -0.0001353  -0.0000247  -0.0002101
   24   0.0000339  -0.0000609  -0.0000723   0.0000619   0.0000133  -0.0000770
   25  -0.0000353   0.0000218  -0.0002442   0.0001557   0.0002582  -0.0001815
   26  -0.0001327  -0.0000225   0.0002259  -0.0004837  -0.0003723   0.0004239
   27  -0.0000754  -0.0000147  -0.0000716  -0.0000567   0.0000544  -0.0000645
   28  -0.0003639   0.0012287   0.0018731  -0.0035156  -0.0007164   0.0031160
   29   0.0003547  -0.0009591  -0.0029130   0.0034181   0.0047837  -0.0046483
   30  -0.0003792  -0.0015245  -0.0028064   0.0022507   0.0011668  -0.0062409
   31  -0.0037124  -0.0006047  -0.0032179  -0.0003838   0.0012711  -0.0019459
   32   0.0036643   0.0047826   0.0045774   0.0004009  -0.0010075   0.0029798
   33  -0.0023623  -0.0013543  -0.0063848   0.0003917   0.0015410  -0.0028212
   34   0.0016126  -0.0004782   0.0011480   0.0016111  -0.0004539  -0.0012030
   35   0.0028866   0.0018477   0.0015715   0.0028063   0.0018655  -0.0015019
   36   0.0004116   0.0004531   0.0006944  -0.0004332  -0.0004093   0.0007514
   37  -0.0041283   0.0064640  -0.0034921  -0.0038027   0.0062608   0.0034527
   38  -0.0011575  -0.0031650  -0.0010559  -0.0012688  -0.0030442   0.0008855
   39  -0.0095773   0.0094909  -0.0025514   0.0094199  -0.0095065  -0.0026331
   40  -0.0025468   0.0004756  -0.0016574  -0.0025045   0.0004665   0.0016364
   41  -0.0006902   0.0003693  -0.0003500  -0.0006930   0.0003456   0.0003664
   42  -0.0007774  -0.0008824  -0.0022681   0.0008245   0.0008767  -0.0023346
   43   0.0008038   0.0008563   0.0005353   0.0006701   0.0006743  -0.0001857
   44  -0.0003204   0.0031176  -0.0006680  -0.0002127   0.0031640   0.0005799
   45   0.0016141   0.0018104   0.0059227  -0.0014611  -0.0017191   0.0058455
   46  -0.1691778   0.0113876  -0.1444524  -0.1640066   0.0110091   0.1396011
   47  -0.0001379  -0.0564692   0.0048307  -0.0003531  -0.0570053  -0.0041573
   48  -0.1491335   0.0221754  -0.2613897   0.1444638  -0.0216844  -0.2600535
            7           8           9          10          11          12
    1  -0.0148075  -0.0058172  -0.0264591   0.0009451   0.0004000  -0.0001321
    2  -0.0213349   0.0081917  -0.0177599  -0.0004032  -0.0002494   0.0004839
    3  -0.0109912  -0.0002784   0.0031097   0.0001935   0.0005552   0.0009469
    4  -0.0148544  -0.0061240   0.0269351   0.0013034   0.0001083  -0.0010750
    5  -0.0214286   0.0081527   0.0179699  -0.0000825  -0.0004790  -0.0004205
    6   0.0113939   0.0003594   0.0026409  -0.0010583   0.0002173   0.0018231
    7   0.3421349   0.2911307  -0.0003756   0.0005574  -0.0003812  -0.0004300
    8   0.2911307   0.2837900  -0.0002870  -0.0010587  -0.0005142   0.0004430
    9  -0.0003756  -0.0002870   0.0330259  -0.0001907   0.0002180   0.0006581
   10   0.0005574  -0.0010587  -0.0001907   0.1331064   0.0771848  -0.1551510
   11  -0.0003812  -0.0005142   0.0002180   0.0771848   0.0811860  -0.1149426
   12  -0.0004300   0.0004430   0.0006581  -0.1551510  -0.1149426   0.5012610
   13   0.0005771  -0.0010866   0.0002111   0.0334509   0.0040988   0.0097028
   14  -0.0003854  -0.0005158  -0.0002125   0.0043821   0.0318491   0.0083412
   15   0.0004069  -0.0004309   0.0006595  -0.0131191  -0.0078196  -0.0971988
   16   0.0012524  -0.0010621  -0.0021682   0.0001659  -0.0001706  -0.0003626
   17  -0.0021984   0.0004088   0.0027957   0.0003206  -0.0000689  -0.0003088
   18  -0.0017836  -0.0006361   0.0011226  -0.0001763  -0.0002250   0.0001111
   19   0.0013452  -0.0011115   0.0021944  -0.0001242  -0.0000580   0.0003386
   20  -0.0022616   0.0003870  -0.0027246   0.0001279  -0.0000230   0.0000278
   21   0.0017695   0.0006559   0.0010233   0.0000471  -0.0000120   0.0000013
   22   0.0001592   0.0001484   0.0000651   0.0026058  -0.0002633   0.0036702
   23  -0.0003812  -0.0000050  -0.0001962   0.0020442  -0.0001929   0.0015445
   24   0.0000200   0.0000469  -0.0000783   0.0009270   0.0003140   0.0023237
   25   0.0001449   0.0001407  -0.0000703  -0.0044134  -0.0050475   0.0002108
   26  -0.0003754   0.0000005   0.0002003  -0.0046206  -0.0043084   0.0003261
   27  -0.0000316  -0.0000440  -0.0000763   0.0019847   0.0011004   0.0027842
   28  -0.0017907   0.0010880   0.0014588  -0.0016975  -0.0000585   0.0000958
   29   0.0028328   0.0000071  -0.0020803  -0.0022531   0.0026577   0.0040122
   30   0.0015618  -0.0010669  -0.0019104   0.0002022  -0.0003259  -0.0014022
   31  -0.0018562   0.0011792  -0.0015398  -0.0005328  -0.0008615  -0.0001195
   32   0.0029168  -0.0000289   0.0021050  -0.0002028  -0.0006830  -0.0023096
   33  -0.0015409   0.0010632  -0.0019421   0.0001033  -0.0005426  -0.0011843
   34   0.0012495  -0.0032272  -0.0000181  -0.0145997  -0.0228643   0.0173760
   35   0.0023445  -0.0010903   0.0000639  -0.0222444  -0.0000764   0.0146587
   36  -0.0000098   0.0000962   0.0006609   0.0280188   0.0230116  -0.0142699
   37  -0.0003843  -0.0145416  -0.0000984   0.0029398   0.0007262  -0.0018837
   38  -0.0032476  -0.0184358  -0.0001439  -0.0021020   0.0008470   0.0008860
   39  -0.0000368   0.0000696   0.0018640  -0.0004787   0.0003501   0.0010159
   40  -0.0014522   0.0027445  -0.0000194  -0.1466279  -0.0539694   0.1231954
   41   0.0000807   0.0001397  -0.0000064  -0.0545083  -0.1131761   0.0916535
   42   0.0000304  -0.0000537  -0.0011445   0.1359907   0.0989025  -0.3953409
   43   0.0050642   0.0045841   0.0001731  -0.0037132   0.0010554   0.0023869
   44   0.0033999  -0.0049245  -0.0000658   0.0015523   0.0028573  -0.0039275
   45   0.0000240  -0.0001680   0.0046900   0.0018455   0.0003643   0.0013474
   46  -0.3173395  -0.2669866  -0.0000980  -0.0033662   0.0001009   0.0021773
   47  -0.2507113  -0.2755630   0.0001238   0.0018636   0.0003741  -0.0004678
   48  -0.0000069   0.0002307  -0.0443031   0.0008612  -0.0011658  -0.0028766
           13          14          15          16          17          18
    1   0.0013599   0.0000893   0.0010697   0.0018009  -0.0016010   0.0001787
    2  -0.0000873  -0.0004960   0.0004071  -0.0010128   0.0005831   0.0002313
    3   0.0010986  -0.0002305   0.0017870  -0.0026305   0.0021799   0.0014304
    4   0.0009551   0.0003882   0.0001284  -0.0010928   0.0027526   0.0003569
    5  -0.0004046  -0.0002449  -0.0004722   0.0030581  -0.0037999  -0.0012054
    6  -0.0001883  -0.0005595   0.0009432  -0.0004675   0.0001084   0.0019791
    7   0.0005771  -0.0003854   0.0004069   0.0012524  -0.0021984  -0.0017836
    8  -0.0010866  -0.0005158  -0.0004309  -0.0010621   0.0004088  -0.0006361
    9   0.0002111  -0.0002125   0.0006595  -0.0021682   0.0027957   0.0011226
   10   0.0334509   0.0043821  -0.0131191   0.0001659   0.0003206  -0.0001763
   11   0.0040988   0.0318491  -0.0078196  -0.0001706  -0.0000689  -0.0002250
   12   0.0097028   0.0083412  -0.0971988  -0.0003626  -0.0003088   0.0001111
   13   0.1405949   0.0786607   0.1617029  -0.0001418   0.0001493  -0.0000510
   14   0.0786607   0.0798369   0.1082595  -0.0000475  -0.0000209   0.0000003
   15   0.1617029   0.1082595   0.4875620  -0.0003459  -0.0000371   0.0000039
   16  -0.0001418  -0.0000475  -0.0003459   0.1319880   0.0143002  -0.1425385
   17   0.0001493  -0.0000209  -0.0000371   0.0143002   0.0379771  -0.0078380
   18  -0.0000510   0.0000003   0.0000039  -0.1425385  -0.0078380   0.2503740
   19   0.0001717  -0.0001730   0.0003481   0.0087611   0.0016330   0.0142667
   20   0.0003055  -0.0000382   0.0002718   0.0015885  -0.0006966  -0.0009153
   21   0.0001540   0.0002172   0.0000891  -0.0148934   0.0008672  -0.0167184
   22  -0.0043956  -0.0050743  -0.0000354   0.0001256   0.0001167   0.0000030
   23  -0.0043654  -0.0043510  -0.0003071  -0.0001061  -0.0001348   0.0000111
   24  -0.0018528  -0.0011126   0.0028123  -0.0000454   0.0000769  -0.0000223
   25   0.0024475  -0.0000935  -0.0036930   0.0004253   0.0002717  -0.0000629
   26   0.0019622  -0.0001315  -0.0017772  -0.0004720  -0.0002511   0.0007324
   27  -0.0009826  -0.0003612   0.0024726  -0.0001981  -0.0005325   0.0002150
   28  -0.0005072  -0.0008488   0.0001223  -0.0019402  -0.0011948  -0.0005417
   29  -0.0001332  -0.0007252   0.0024713  -0.0033095  -0.0041576  -0.0007321
   30  -0.0000738   0.0005701  -0.0010897   0.0004530  -0.0020775   0.0016772
   31  -0.0016483  -0.0000764  -0.0000965  -0.0000568   0.0005044   0.0002221
   32  -0.0023412   0.0026487  -0.0037154  -0.0000008   0.0006116   0.0004822
   33  -0.0002510   0.0004689  -0.0015119   0.0012259   0.0000700   0.0003534
   34  -0.0156376  -0.0234560  -0.0173828   0.0001144  -0.0003004  -0.0002685
   35  -0.0225448   0.0002220  -0.0138234   0.0011151   0.0024526  -0.0003772
   36  -0.0278627  -0.0222535  -0.0132043  -0.0003143   0.0011105  -0.0000834
   37   0.0030533   0.0007255   0.0018328  -0.1210146  -0.0034708   0.1320392
   38  -0.0021440   0.0007375  -0.0007448  -0.0155624  -0.0253730   0.0111314
   39   0.0003946  -0.0003149   0.0009384   0.1331973  -0.0043656  -0.2378401
   40  -0.1527686  -0.0552498  -0.1265450   0.0001425  -0.0004795  -0.0000430
   41  -0.0554444  -0.1120066  -0.0863816  -0.0000327  -0.0002669   0.0003268
   42  -0.1394332  -0.0936727  -0.3830098   0.0004819   0.0000520   0.0002314
   43  -0.0040276   0.0010251  -0.0022895  -0.0122734  -0.0215805  -0.0024027
   44   0.0014852   0.0028295   0.0036779   0.0023806  -0.0094660  -0.0034902
   45  -0.0016440  -0.0002969   0.0015903   0.0135604   0.0254562   0.0016054
   46  -0.0034838   0.0001339  -0.0021040  -0.0082566   0.0107769   0.0008015
   47   0.0018900   0.0004064   0.0004216  -0.0006661   0.0022025   0.0025038
   48  -0.0009247   0.0011571  -0.0028439   0.0150461  -0.0175571  -0.0044394
           19          20          21          22          23          24
    1  -0.0010899   0.0027796  -0.0003490   0.0001674  -0.0004982   0.0000339
    2   0.0030930  -0.0038522   0.0011677   0.0002609  -0.0003643  -0.0000609
    3   0.0005091  -0.0001275   0.0019672   0.0001708  -0.0004121  -0.0000723
    4   0.0017898  -0.0015742  -0.0002070  -0.0000252  -0.0001353   0.0000619
    5  -0.0009619   0.0005139  -0.0001994   0.0000319  -0.0000247   0.0000133
    6   0.0026163  -0.0021202   0.0013545   0.0002339  -0.0002101  -0.0000770
    7   0.0013452  -0.0022616   0.0017695   0.0001592  -0.0003812   0.0000200
    8  -0.0011115   0.0003870   0.0006559   0.0001484  -0.0000050   0.0000469
    9   0.0021944  -0.0027246   0.0010233   0.0000651  -0.0001962  -0.0000783
   10  -0.0001242   0.0001279   0.0000471   0.0026058   0.0020442   0.0009270
   11  -0.0000580  -0.0000230  -0.0000120  -0.0002633  -0.0001929   0.0003140
   12   0.0003386   0.0000278   0.0000013   0.0036702   0.0015445   0.0023237
   13   0.0001717   0.0003055   0.0001540  -0.0043956  -0.0043654  -0.0018528
   14  -0.0001730  -0.0000382   0.0002172  -0.0050743  -0.0043510  -0.0011126
   15   0.0003481   0.0002718   0.0000891  -0.0000354  -0.0003071   0.0028123
   16   0.0087611   0.0015885  -0.0148934   0.0001256  -0.0001061  -0.0000454
   17   0.0016330  -0.0006966   0.0008672   0.0001167  -0.0001348   0.0000769
   18   0.0142667  -0.0009153  -0.0167184   0.0000030   0.0000111  -0.0000223
   19   0.1393147   0.0148285   0.1452891   0.0004361  -0.0004612   0.0001539
   20   0.0148285   0.0378721   0.0078292   0.0002459  -0.0003466   0.0004440
   21   0.1452891   0.0078292   0.2432155   0.0000633  -0.0006956   0.0001291
   22   0.0004361   0.0002459   0.0000633   0.1370488  -0.0296638   0.1417882
   23  -0.0004612  -0.0003466  -0.0006956  -0.0296638   0.0507309  -0.0338826
   24   0.0001539   0.0004440   0.0001291   0.1417882  -0.0338826   0.2471157
   25   0.0001203   0.0001149  -0.0000052   0.0089875  -0.0029404  -0.0145801
   26  -0.0001144  -0.0001106   0.0000014  -0.0033015   0.0010897   0.0027315
   27   0.0000275  -0.0000602  -0.0000116   0.0131233  -0.0019889  -0.0152212
   28  -0.0000273   0.0005587  -0.0002218  -0.0001909  -0.0005973   0.0001289
   29   0.0000680   0.0006587  -0.0005225   0.0000726   0.0009521   0.0003605
   30  -0.0011733  -0.0000721   0.0004271  -0.0008761   0.0004480   0.0002899
   31  -0.0019675  -0.0009687   0.0006883  -0.0002308   0.0011471   0.0005979
   32  -0.0033897  -0.0041318   0.0008153   0.0021616  -0.0046713  -0.0008471
   33  -0.0004174   0.0020881   0.0016743   0.0003921  -0.0017985   0.0014142
   34   0.0000873  -0.0003897   0.0002192  -0.1287302   0.0195931  -0.1315382
   35   0.0011166   0.0023004   0.0002816   0.0274859  -0.0400515   0.0351411
   36   0.0003745  -0.0009884  -0.0001186  -0.1262694   0.0258675  -0.2368501
   37  -0.1277439  -0.0037759  -0.1348673   0.0000899   0.0004907   0.0003115
   38  -0.0160294  -0.0253727  -0.0110656  -0.0008431   0.0029679  -0.0005091
   39  -0.1360186   0.0038972  -0.2311757   0.0007131   0.0007150   0.0002485
   40   0.0001347  -0.0004101   0.0000683  -0.0066537  -0.0079249   0.0017838
   41  -0.0000220  -0.0003034  -0.0003065   0.0070679   0.0053484  -0.0000145
   42  -0.0004873   0.0000078   0.0002269  -0.0225029  -0.0173521  -0.0053036
   43  -0.0126692  -0.0221959   0.0028584  -0.0091529   0.0227146   0.0021252
   44   0.0024415  -0.0093272   0.0035118   0.0016851  -0.0103129  -0.0029715
   45  -0.0131079  -0.0247846   0.0020140  -0.0101486   0.0276641   0.0028614
   46  -0.0085390   0.0110265  -0.0006135  -0.0002411   0.0010838   0.0000842
   47  -0.0008594   0.0024702  -0.0025458  -0.0001311  -0.0006340   0.0002700
   48  -0.0149137   0.0172268  -0.0040980  -0.0003906   0.0005929   0.0004299
           25          26          27          28          29          30
    1  -0.0000353  -0.0001327  -0.0000754  -0.0003639   0.0003547  -0.0003792
    2   0.0000218  -0.0000225  -0.0000147   0.0012287  -0.0009591  -0.0015245
    3  -0.0002442   0.0002259  -0.0000716   0.0018731  -0.0029130  -0.0028064
    4   0.0001557  -0.0004837  -0.0000567  -0.0035156   0.0034181   0.0022507
    5   0.0002582  -0.0003723   0.0000544  -0.0007164   0.0047837   0.0011668
    6  -0.0001815   0.0004239  -0.0000645   0.0031160  -0.0046483  -0.0062409
    7   0.0001449  -0.0003754  -0.0000316  -0.0017907   0.0028328   0.0015618
    8   0.0001407   0.0000005  -0.0000440   0.0010880   0.0000071  -0.0010669
    9  -0.0000703   0.0002003  -0.0000763   0.0014588  -0.0020803  -0.0019104
   10  -0.0044134  -0.0046206   0.0019847  -0.0016975  -0.0022531   0.0002022
   11  -0.0050475  -0.0043084   0.0011004  -0.0000585   0.0026577  -0.0003259
   12   0.0002108   0.0003261   0.0027842   0.0000958   0.0040122  -0.0014022
   13   0.0024475   0.0019622  -0.0009826  -0.0005072  -0.0001332  -0.0000738
   14  -0.0000935  -0.0001315  -0.0003612  -0.0008488  -0.0007252   0.0005701
   15  -0.0036930  -0.0017772   0.0024726   0.0001223   0.0024713  -0.0010897
   16   0.0004253  -0.0004720  -0.0001981  -0.0019402  -0.0033095   0.0004530
   17   0.0002717  -0.0002511  -0.0005325  -0.0011948  -0.0041576  -0.0020775
   18  -0.0000629   0.0007324   0.0002150  -0.0005417  -0.0007321   0.0016772
   19   0.0001203  -0.0001144   0.0000275  -0.0000273   0.0000680  -0.0011733
   20   0.0001149  -0.0001106  -0.0000602   0.0005587   0.0006587  -0.0000721
   21  -0.0000052   0.0000014  -0.0000116  -0.0002218  -0.0005225   0.0004271
   22   0.0089875  -0.0033015   0.0131233  -0.0001909   0.0000726  -0.0008761
   23  -0.0029404   0.0010897  -0.0019889  -0.0005973   0.0009521   0.0004480
   24  -0.0145801   0.0027315  -0.0152212   0.0001289   0.0003605   0.0002899
   25   0.1225803  -0.0235565  -0.1364044  -0.0002997   0.0021850  -0.0001967
   26  -0.0235565   0.0484092   0.0281725   0.0012089  -0.0047900   0.0015312
   27  -0.1364044   0.0281725   0.2637411  -0.0004644   0.0005693   0.0015088
   28  -0.0002997   0.0012089  -0.0004644   0.1540389  -0.0036366  -0.1287383
   29   0.0021850  -0.0047900   0.0005693  -0.0036366   0.0553154   0.0063325
   30  -0.0001967   0.0015312   0.0015088  -0.1287383   0.0063325   0.2319183
   31  -0.0001472  -0.0006099  -0.0001116   0.0122552  -0.0014985   0.0143914
   32  -0.0000074   0.0009659  -0.0003276  -0.0011644   0.0003817  -0.0001878
   33   0.0008961  -0.0004434   0.0002204  -0.0164526   0.0009170  -0.0257021
   34  -0.1152992   0.0143069   0.1262488  -0.0084180   0.0173752  -0.0006828
   35   0.0217636  -0.0378407  -0.0293025   0.0062646  -0.0078886  -0.0034001
   36   0.1209016  -0.0197697  -0.2520528   0.0112725  -0.0251626   0.0018304
   37   0.0000513   0.0005738  -0.0002502  -0.0146875  -0.0163299   0.0028672
   38  -0.0008493   0.0029732   0.0006637  -0.0068342  -0.0022914   0.0054938
   39  -0.0007398  -0.0007567   0.0002601   0.0168770   0.0231186   0.0007325
   40  -0.0058206  -0.0068926  -0.0018740   0.0018365   0.0036133  -0.0010195
   41   0.0063295   0.0047352  -0.0001212   0.0004047   0.0019393  -0.0015287
   42   0.0229958   0.0181646  -0.0057274  -0.0013082  -0.0076399   0.0019388
   43  -0.0086767   0.0214206  -0.0008947  -0.1409192   0.0056955   0.1171918
   44   0.0015408  -0.0097402   0.0025077   0.0083028  -0.0480798  -0.0094917
   45   0.0107539  -0.0291477   0.0015815   0.1211426  -0.0054842  -0.2117367
   46  -0.0002206   0.0010869  -0.0000404   0.0062272  -0.0084545  -0.0057783
   47  -0.0001315  -0.0006064  -0.0003155  -0.0040054   0.0021961   0.0041330
   48   0.0004197  -0.0006152   0.0004418  -0.0083600   0.0114016   0.0105654
           31          32          33          34          35          36
    1  -0.0037124   0.0036643  -0.0023623   0.0016126   0.0028866   0.0004116
    2  -0.0006047   0.0047826  -0.0013543  -0.0004782   0.0018477   0.0004531
    3  -0.0032179   0.0045774  -0.0063848   0.0011480   0.0015715   0.0006944
    4  -0.0003838   0.0004009   0.0003917   0.0016111   0.0028063  -0.0004332
    5   0.0012711  -0.0010075   0.0015410  -0.0004539   0.0018655  -0.0004093
    6  -0.0019459   0.0029798  -0.0028212  -0.0012030  -0.0015019   0.0007514
    7  -0.0018562   0.0029168  -0.0015409   0.0012495   0.0023445  -0.0000098
    8   0.0011792  -0.0000289   0.0010632  -0.0032272  -0.0010903   0.0000962
    9  -0.0015398   0.0021050  -0.0019421  -0.0000181   0.0000639   0.0006609
   10  -0.0005328  -0.0002028   0.0001033  -0.0145997  -0.0222444   0.0280188
   11  -0.0008615  -0.0006830  -0.0005426  -0.0228643  -0.0000764   0.0230116
   12  -0.0001195  -0.0023096  -0.0011843   0.0173760   0.0146587  -0.0142699
   13  -0.0016483  -0.0023412  -0.0002510  -0.0156376  -0.0225448  -0.0278627
   14  -0.0000764   0.0026487   0.0004689  -0.0234560   0.0002220  -0.0222535
   15  -0.0000965  -0.0037154  -0.0015119  -0.0173828  -0.0138234  -0.0132043
   16  -0.0000568  -0.0000008   0.0012259   0.0001144   0.0011151  -0.0003143
   17   0.0005044   0.0006116   0.0000700  -0.0003004   0.0024526   0.0011105
   18   0.0002221   0.0004822   0.0003534  -0.0002685  -0.0003772  -0.0000834
   19  -0.0019675  -0.0033897  -0.0004174   0.0000873   0.0011166   0.0003745
   20  -0.0009687  -0.0041318   0.0020881  -0.0003897   0.0023004  -0.0009884
   21   0.0006883   0.0008153   0.0016743   0.0002192   0.0002816  -0.0001186
   22  -0.0002308   0.0021616   0.0003921  -0.1287302   0.0274859  -0.1262694
   23   0.0011471  -0.0046713  -0.0017985   0.0195931  -0.0400515   0.0258675
   24   0.0005979  -0.0008471   0.0014142  -0.1315382   0.0351411  -0.2368501
   25  -0.0001472  -0.0000074   0.0008961  -0.1152992   0.0217636   0.1209016
   26  -0.0006099   0.0009659  -0.0004434   0.0143069  -0.0378407  -0.0197697
   27  -0.0001116  -0.0003276   0.0002204   0.1262488  -0.0293025  -0.2520528
   28   0.0122552  -0.0011644  -0.0164526  -0.0084180   0.0062646   0.0112725
   29  -0.0014985   0.0003817   0.0009170   0.0173752  -0.0078886  -0.0251626
   30   0.0143914  -0.0001878  -0.0257021  -0.0006828  -0.0034001   0.0018304
   31   0.1611469  -0.0066735   0.1234442  -0.0089936   0.0070449  -0.0106367
   32  -0.0066735   0.0575678  -0.0085192   0.0187943  -0.0089975   0.0237493
   33   0.1234442  -0.0085192   0.2107003   0.0014751   0.0031256   0.0030189
   34  -0.0089936   0.0187943   0.0014751   0.4723254  -0.0367977   0.0032616
   35   0.0070449  -0.0089975   0.0031256  -0.0367977   0.3076681  -0.0046953
   36  -0.0106367   0.0237493   0.0030189   0.0032616  -0.0046953   0.6531566
   37  -0.0157318  -0.0172162  -0.0028590   0.0186141   0.0058395  -0.0005424
   38  -0.0074358  -0.0020865  -0.0058184  -0.0112535  -0.0278927  -0.0000084
   39  -0.0164581  -0.0222141   0.0009712  -0.0005734  -0.0002957  -0.0002256
   40   0.0019370   0.0037207   0.0010691  -0.0959771  -0.0120894   0.0004668
   41   0.0004396   0.0017742   0.0015193  -0.0091601  -0.0791446   0.0001596
   42   0.0012405   0.0072781   0.0021949   0.0004476   0.0000352  -0.0567367
   43  -0.1466876   0.0082761  -0.1109313  -0.1003850   0.0286237   0.0012321
   44   0.0113223  -0.0492546   0.0118374   0.0342056  -0.1147423  -0.0010925
   45  -0.1151492   0.0078102  -0.1916897   0.0013873  -0.0013337  -0.0842133
   46   0.0066097  -0.0089389   0.0058171  -0.0075740  -0.0136149   0.0001292
   47  -0.0041795   0.0021285  -0.0041541   0.0041060   0.0013682  -0.0000681
   48   0.0086908  -0.0116765   0.0106886   0.0001031  -0.0001479  -0.0023580
           37          38          39          40          41          42
    1  -0.0041283  -0.0011575  -0.0095773  -0.0025468  -0.0006902  -0.0007774
    2   0.0064640  -0.0031650   0.0094909   0.0004756   0.0003693  -0.0008824
    3  -0.0034921  -0.0010559  -0.0025514  -0.0016574  -0.0003500  -0.0022681
    4  -0.0038027  -0.0012688   0.0094199  -0.0025045  -0.0006930   0.0008245
    5   0.0062608  -0.0030442  -0.0095065   0.0004665   0.0003456   0.0008767
    6   0.0034527   0.0008855  -0.0026331   0.0016364   0.0003664  -0.0023346
    7  -0.0003843  -0.0032476  -0.0000368  -0.0014522   0.0000807   0.0000304
    8  -0.0145416  -0.0184358   0.0000696   0.0027445   0.0001397  -0.0000537
    9  -0.0000984  -0.0001439   0.0018640  -0.0000194  -0.0000064  -0.0011445
   10   0.0029398  -0.0021020  -0.0004787  -0.1466279  -0.0545083   0.1359907
   11   0.0007262   0.0008470   0.0003501  -0.0539694  -0.1131761   0.0989025
   12  -0.0018837   0.0008860   0.0010159   0.1231954   0.0916535  -0.3953409
   13   0.0030533  -0.0021440   0.0003946  -0.1527686  -0.0554444  -0.1394332
   14   0.0007255   0.0007375  -0.0003149  -0.0552498  -0.1120066  -0.0936727
   15   0.0018328  -0.0007448   0.0009384  -0.1265450  -0.0863816  -0.3830098
   16  -0.1210146  -0.0155624   0.1331973   0.0001425  -0.0000327   0.0004819
   17  -0.0034708  -0.0253730  -0.0043656  -0.0004795  -0.0002669   0.0000520
   18   0.1320392   0.0111314  -0.2378401  -0.0000430   0.0003268   0.0002314
   19  -0.1277439  -0.0160294  -0.1360186   0.0001347  -0.0000220  -0.0004873
   20  -0.0037759  -0.0253727   0.0038972  -0.0004101  -0.0003034   0.0000078
   21  -0.1348673  -0.0110656  -0.2311757   0.0000683  -0.0003065   0.0002269
   22   0.0000899  -0.0008431   0.0007131  -0.0066537   0.0070679  -0.0225029
   23   0.0004907   0.0029679   0.0007150  -0.0079249   0.0053484  -0.0173521
   24   0.0003115  -0.0005091   0.0002485   0.0017838  -0.0000145  -0.0053036
   25   0.0000513  -0.0008493  -0.0007398  -0.0058206   0.0063295   0.0229958
   26   0.0005738   0.0029732  -0.0007567  -0.0068926   0.0047352   0.0181646
   27  -0.0002502   0.0006637   0.0002601  -0.0018740  -0.0001212  -0.0057274
   28  -0.0146875  -0.0068342   0.0168770   0.0018365   0.0004047  -0.0013082
   29  -0.0163299  -0.0022914   0.0231186   0.0036133   0.0019393  -0.0076399
   30   0.0028672   0.0054938   0.0007325  -0.0010195  -0.0015287   0.0019388
   31  -0.0157318  -0.0074358  -0.0164581   0.0019370   0.0004396   0.0012405
   32  -0.0172162  -0.0020865  -0.0222141   0.0037207   0.0017742   0.0072781
   33  -0.0028590  -0.0058184   0.0009712   0.0010691   0.0015193   0.0021949
   34   0.0186141  -0.0112535  -0.0005734  -0.0959771  -0.0091601   0.0004476
   35   0.0058395  -0.0278927  -0.0002957  -0.0120894  -0.0791446   0.0000352
   36  -0.0005424  -0.0000084  -0.0002256   0.0004668   0.0001596  -0.0567367
   37   0.4411257   0.0426356   0.0019804  -0.0075482   0.0008992   0.0002260
   38   0.0426356   0.2652792  -0.0000966   0.0060213  -0.0010500  -0.0002584
   39   0.0019804  -0.0000966   0.5853811   0.0001863  -0.0001032  -0.0015322
   40  -0.0075482   0.0060213   0.0001863   0.3924006   0.1282982   0.0032335
   41   0.0008992  -0.0010500  -0.0001032   0.1282982   0.3337530  -0.0051581
   42   0.0002260  -0.0002584  -0.0015322   0.0032335  -0.0051581   0.8468431
   43  -0.1125956  -0.0248819   0.0006331   0.0164581  -0.0232112  -0.0007939
   44  -0.0493700  -0.1015671   0.0005479  -0.0045260  -0.0424179  -0.0003936
   45   0.0009629   0.0005620  -0.0825708  -0.0005198  -0.0000638  -0.0035416
   46  -0.0582370   0.0449525   0.0004810   0.0089903   0.0002420  -0.0001682
   47   0.0400890  -0.0625262  -0.0005361  -0.0037986  -0.0000392   0.0000942
   48   0.0003204   0.0000787  -0.0328829   0.0000386   0.0000085   0.0055042
           43          44          45          46          47          48
    1   0.0008038  -0.0003204   0.0016141  -0.1691778  -0.0001379  -0.1491335
    2   0.0008563   0.0031176   0.0018104   0.0113876  -0.0564692   0.0221754
    3   0.0005353  -0.0006680   0.0059227  -0.1444524   0.0048307  -0.2613897
    4   0.0006701  -0.0002127  -0.0014611  -0.1640066  -0.0003531   0.1444638
    5   0.0006743   0.0031640  -0.0017191   0.0110091  -0.0570053  -0.0216844
    6  -0.0001857   0.0005799   0.0058455   0.1396011  -0.0041573  -0.2600535
    7   0.0050642   0.0033999   0.0000240  -0.3173395  -0.2507113  -0.0000069
    8   0.0045841  -0.0049245  -0.0001680  -0.2669866  -0.2755630   0.0002307
    9   0.0001731  -0.0000658   0.0046900  -0.0000980   0.0001238  -0.0443031
   10  -0.0037132   0.0015523   0.0018455  -0.0033662   0.0018636   0.0008612
   11   0.0010554   0.0028573   0.0003643   0.0001009   0.0003741  -0.0011658
   12   0.0023869  -0.0039275   0.0013474   0.0021773  -0.0004678  -0.0028766
   13  -0.0040276   0.0014852  -0.0016440  -0.0034838   0.0018900  -0.0009247
   14   0.0010251   0.0028295  -0.0002969   0.0001339   0.0004064   0.0011571
   15  -0.0022895   0.0036779   0.0015903  -0.0021040   0.0004216  -0.0028439
   16  -0.0122734   0.0023806   0.0135604  -0.0082566  -0.0006661   0.0150461
   17  -0.0215805  -0.0094660   0.0254562   0.0107769   0.0022025  -0.0175571
   18  -0.0024027  -0.0034902   0.0016054   0.0008015   0.0025038  -0.0044394
   19  -0.0126692   0.0024415  -0.0131079  -0.0085390  -0.0008594  -0.0149137
   20  -0.0221959  -0.0093272  -0.0247846   0.0110265   0.0024702   0.0172268
   21   0.0028584   0.0035118   0.0020140  -0.0006135  -0.0025458  -0.0040980
   22  -0.0091529   0.0016851  -0.0101486  -0.0002411  -0.0001311  -0.0003906
   23   0.0227146  -0.0103129   0.0276641   0.0010838  -0.0006340   0.0005929
   24   0.0021252  -0.0029715   0.0028614   0.0000842   0.0002700   0.0004299
   25  -0.0086767   0.0015408   0.0107539  -0.0002206  -0.0001315   0.0004197
   26   0.0214206  -0.0097402  -0.0291477   0.0010869  -0.0006064  -0.0006152
   27  -0.0008947   0.0025077   0.0015815  -0.0000404  -0.0003155   0.0004418
   28  -0.1409192   0.0083028   0.1211426   0.0062272  -0.0040054  -0.0083600
   29   0.0056955  -0.0480798  -0.0054842  -0.0084545   0.0021961   0.0114016
   30   0.1171918  -0.0094917  -0.2117367  -0.0057783   0.0041330   0.0105654
   31  -0.1466876   0.0113223  -0.1151492   0.0066097  -0.0041795   0.0086908
   32   0.0082761  -0.0492546   0.0078102  -0.0089389   0.0021285  -0.0116765
   33  -0.1109313   0.0118374  -0.1916897   0.0058171  -0.0041541   0.0106886
   34  -0.1003850   0.0342056   0.0013873  -0.0075740   0.0041060   0.0001031
   35   0.0286237  -0.1147423  -0.0013337  -0.0136149   0.0013682  -0.0001479
   36   0.0012321  -0.0010925  -0.0842133   0.0001292  -0.0000681  -0.0023580
   37  -0.1125956  -0.0493700   0.0009629  -0.0582370   0.0400890   0.0003204
   38  -0.0248819  -0.1015671   0.0005620   0.0449525  -0.0625262   0.0000787
   39   0.0006331   0.0005479  -0.0825708   0.0004810  -0.0005361  -0.0328829
   40   0.0164581  -0.0045260  -0.0005198   0.0089903  -0.0037986   0.0000386
   41  -0.0232112  -0.0424179  -0.0000638   0.0002420  -0.0000392   0.0000085
   42  -0.0007939  -0.0003936  -0.0035416  -0.0001682   0.0000942   0.0055042
   43   0.5247179  -0.0014535  -0.0088384   0.0033862  -0.0016028  -0.0007997
   44  -0.0014535   0.4202760  -0.0007952  -0.0124334  -0.0324119   0.0002335
   45  -0.0088384  -0.0007952   0.5632798  -0.0004218   0.0001263  -0.0169859
   46   0.0033862  -0.0124334  -0.0004218   0.7152288   0.2186282   0.0045853
   47  -0.0016028  -0.0324119   0.0001263   0.2186282   0.4741090  -0.0002585
   48  -0.0007997   0.0002335  -0.0169859   0.0045853  -0.0002585   0.6046012

 Mass-Weighted Hessian Matrix:


     0.010880   -0.000055    0.010869    0.000947    0.000066    0.000756
    -0.000055    0.001893   -0.000703    0.000063    0.001026   -0.000211
     0.010869   -0.000703    0.018959   -0.000794    0.000209   -0.002724
     0.000947    0.000063   -0.000794    0.010538   -0.000002   -0.010560
     0.000066    0.001026    0.000209   -0.000002    0.001922    0.000666
     0.000756   -0.000211   -0.002724   -0.010560    0.000666    0.018909
    -0.000926   -0.001334   -0.000687   -0.000929   -0.001340    0.000712
    -0.000364    0.000512   -0.000017   -0.000383    0.000510    0.000022
    -0.001654   -0.001110    0.000194    0.001684    0.001123    0.000165
     0.000059   -0.000025    0.000012    0.000081   -0.000005   -0.000066
     0.000025   -0.000016    0.000035    0.000007   -0.000030    0.000014
    -0.000008    0.000030    0.000059   -0.000067   -0.000026    0.000114
     0.000085   -0.000005    0.000069    0.000060   -0.000025   -0.000012
     0.000006   -0.000031   -0.000014    0.000024   -0.000015   -0.000035
     0.000067    0.000025    0.000112    0.000008   -0.000030    0.000059
     0.000449   -0.000252   -0.000655   -0.000272    0.000762   -0.000116
    -0.000399    0.000145    0.000543    0.000686   -0.000946    0.000027
     0.000045    0.000058    0.000356    0.000089   -0.000300    0.000493
    -0.000271    0.000770    0.000127    0.000446   -0.000240    0.000652
     0.000692   -0.000959   -0.000032   -0.000392    0.000128   -0.000528
    -0.000087    0.000291    0.000490   -0.000052   -0.000050    0.000337
     0.000042    0.000065    0.000043   -0.000006    0.000008    0.000058
    -0.000124   -0.000091   -0.000103   -0.000034   -0.000006   -0.000052
     0.000008   -0.000015   -0.000018    0.000015    0.000003   -0.000019
    -0.000009    0.000005   -0.000061    0.000039    0.000064   -0.000045
    -0.000033   -0.000006    0.000056   -0.000120   -0.000093    0.000106
    -0.000019   -0.000004   -0.000018   -0.000014    0.000014   -0.000016
    -0.000091    0.000306    0.000467   -0.000876   -0.000178    0.000776
     0.000088   -0.000239   -0.000726    0.000851    0.001191   -0.001158
    -0.000094   -0.000380   -0.000699    0.000561    0.000291   -0.001554
    -0.000925   -0.000151   -0.000801   -0.000096    0.000317   -0.000485
     0.000913    0.001191    0.001140    0.000100   -0.000251    0.000742
    -0.000588   -0.000337   -0.001590    0.000098    0.000384   -0.000703
     0.000116   -0.000035    0.000083    0.000116   -0.000033   -0.000087
     0.000208    0.000133    0.000113    0.000203    0.000135   -0.000108
     0.000030    0.000033    0.000050   -0.000031   -0.000030    0.000054
    -0.000298    0.000467   -0.000252   -0.000274    0.000452    0.000249
    -0.000084   -0.000228   -0.000076   -0.000092   -0.000220    0.000064
    -0.000691    0.000685   -0.000184    0.000680   -0.000686   -0.000190
    -0.000184    0.000034   -0.000120   -0.000181    0.000034    0.000118
    -0.000050    0.000027   -0.000025   -0.000050    0.000025    0.000026
    -0.000056   -0.000064   -0.000164    0.000060    0.000063   -0.000169
     0.000054    0.000057    0.000036    0.000045    0.000045   -0.000012
    -0.000021    0.000208   -0.000045   -0.000014    0.000211    0.000039
     0.000108    0.000121    0.000396   -0.000098   -0.000115    0.000391
    -0.007601    0.000512   -0.006490   -0.007368    0.000495    0.006272
    -0.000006   -0.002537    0.000217   -0.000016   -0.002561   -0.000187
    -0.006700    0.000996   -0.011744    0.006490   -0.000974   -0.011684


    -0.000926   -0.000364   -0.001654    0.000059    0.000025   -0.000008
    -0.001334    0.000512   -0.001110   -0.000025   -0.000016    0.000030
    -0.000687   -0.000017    0.000194    0.000012    0.000035    0.000059
    -0.000929   -0.000383    0.001684    0.000081    0.000007   -0.000067
    -0.001340    0.000510    0.001123   -0.000005   -0.000030   -0.000026
     0.000712    0.000022    0.000165   -0.000066    0.000014    0.000114
     0.021390    0.018201   -0.000023    0.000035   -0.000024   -0.000027
     0.018201    0.017743   -0.000018   -0.000066   -0.000032    0.000028
    -0.000023   -0.000018    0.002065   -0.000012    0.000014    0.000041
     0.000035   -0.000066   -0.000012    0.008322    0.004826   -0.009700
    -0.000024   -0.000032    0.000014    0.004826    0.005076   -0.007186
    -0.000027    0.000028    0.000041   -0.009700   -0.007186    0.031339
     0.000036   -0.000068    0.000013    0.002091    0.000256    0.000607
    -0.000024   -0.000032   -0.000013    0.000274    0.001991    0.000521
     0.000025   -0.000027    0.000041   -0.000820   -0.000489   -0.006077
     0.000312   -0.000265   -0.000540    0.000041   -0.000043   -0.000090
    -0.000548    0.000102    0.000696    0.000080   -0.000017   -0.000077
    -0.000444   -0.000158    0.000280   -0.000044   -0.000056    0.000028
     0.000335   -0.000277    0.000547   -0.000031   -0.000014    0.000084
    -0.000563    0.000096   -0.000679    0.000032   -0.000006    0.000007
     0.000441    0.000163    0.000255    0.000012   -0.000003    0.000000
     0.000040    0.000037    0.000016    0.000649   -0.000066    0.000914
    -0.000095   -0.000001   -0.000049    0.000509   -0.000048    0.000385
     0.000005    0.000012   -0.000020    0.000231    0.000078    0.000579
     0.000036    0.000035   -0.000018   -0.001099   -0.001257    0.000052
    -0.000093    0.000000    0.000050   -0.001151   -0.001073    0.000081
    -0.000008   -0.000011   -0.000019    0.000494    0.000274    0.000693
    -0.000446    0.000271    0.000363   -0.000423   -0.000015    0.000024
     0.000706    0.000002   -0.000518   -0.000561    0.000662    0.000999
     0.000389   -0.000266   -0.000476    0.000050   -0.000081   -0.000349
    -0.000462    0.000294   -0.000384   -0.000133   -0.000215   -0.000030
     0.000726   -0.000007    0.000524   -0.000051   -0.000170   -0.000575
    -0.000384    0.000265   -0.000484    0.000026   -0.000135   -0.000295
     0.000090   -0.000233   -0.000001   -0.001054   -0.001650    0.001254
     0.000169   -0.000079    0.000005   -0.001606   -0.000006    0.001058
    -0.000001    0.000007    0.000048    0.002022    0.001661   -0.001030
    -0.000028   -0.001050   -0.000007    0.000212    0.000052   -0.000136
    -0.000234   -0.001331   -0.000010   -0.000152    0.000061    0.000064
    -0.000003    0.000005    0.000135   -0.000035    0.000025    0.000073
    -0.000105    0.000198   -0.000001   -0.010584   -0.003896    0.008892
     0.000006    0.000010   -0.000000   -0.003934   -0.008169    0.006616
     0.000002   -0.000004   -0.000083    0.009816    0.007139   -0.028536
     0.000338    0.000306    0.000012   -0.000248    0.000071    0.000159
     0.000227   -0.000329   -0.000004    0.000104    0.000191   -0.000262
     0.000002   -0.000011    0.000313    0.000123    0.000024    0.000090
    -0.014257   -0.011995   -0.000004   -0.000151    0.000005    0.000098
    -0.011264   -0.012380    0.000006    0.000084    0.000017   -0.000021
    -0.000000    0.000010   -0.001990    0.000039   -0.000052   -0.000129


     0.000085    0.000006    0.000067    0.000449   -0.000399    0.000045
    -0.000005   -0.000031    0.000025   -0.000252    0.000145    0.000058
     0.000069   -0.000014    0.000112   -0.000655    0.000543    0.000356
     0.000060    0.000024    0.000008   -0.000272    0.000686    0.000089
    -0.000025   -0.000015   -0.000030    0.000762   -0.000946   -0.000300
    -0.000012   -0.000035    0.000059   -0.000116    0.000027    0.000493
     0.000036   -0.000024    0.000025    0.000312   -0.000548   -0.000444
    -0.000068   -0.000032   -0.000027   -0.000265    0.000102   -0.000158
     0.000013   -0.000013    0.000041   -0.000540    0.000696    0.000280
     0.002091    0.000274   -0.000820    0.000041    0.000080   -0.000044
     0.000256    0.001991   -0.000489   -0.000043   -0.000017   -0.000056
     0.000607    0.000521   -0.006077   -0.000090   -0.000077    0.000028
     0.008790    0.004918    0.010110   -0.000035    0.000037   -0.000013
     0.004918    0.004991    0.006768   -0.000012   -0.000005    0.000000
     0.010110    0.006768    0.030482   -0.000086   -0.000009    0.000001
    -0.000035   -0.000012   -0.000086    0.130963    0.014189   -0.141431
     0.000037   -0.000005   -0.000009    0.014189    0.037682   -0.007777
    -0.000013    0.000000    0.000001   -0.141431   -0.007777    0.248429
     0.000043   -0.000043    0.000087    0.008693    0.001620    0.014156
     0.000076   -0.000010    0.000068    0.001576   -0.000691   -0.000908
     0.000038    0.000054    0.000022   -0.014778    0.000860   -0.016589
    -0.001095   -0.001264   -0.000009    0.000125    0.000116    0.000003
    -0.001087   -0.001084   -0.000076   -0.000105   -0.000134    0.000011
    -0.000461   -0.000277    0.000700   -0.000045    0.000076   -0.000022
     0.000610   -0.000023   -0.000920    0.000422    0.000270   -0.000062
     0.000489   -0.000033   -0.000443   -0.000468   -0.000249    0.000727
    -0.000245   -0.000090    0.000616   -0.000197   -0.000528    0.000213
    -0.000126   -0.000211    0.000030   -0.001925   -0.001186   -0.000537
    -0.000033   -0.000181    0.000616   -0.003284   -0.004125   -0.000726
    -0.000018    0.000142   -0.000271    0.000449   -0.002061    0.001664
    -0.000411   -0.000019   -0.000024   -0.000056    0.000500    0.000220
    -0.000583    0.000660   -0.000925   -0.000001    0.000607    0.000478
    -0.000063    0.000117   -0.000377    0.001216    0.000070    0.000351
    -0.001129   -0.001693   -0.001255    0.000033   -0.000086   -0.000077
    -0.001627    0.000016   -0.000998    0.000321    0.000705   -0.000108
    -0.002011   -0.001606   -0.000953   -0.000090    0.000319   -0.000024
     0.000220    0.000052    0.000132   -0.034798   -0.000998    0.037968
    -0.000155    0.000053   -0.000054   -0.004475   -0.007296    0.003201
     0.000028   -0.000023    0.000068    0.038301   -0.001255   -0.068391
    -0.011027   -0.003988   -0.009134    0.000041   -0.000138   -0.000012
    -0.004002   -0.008085   -0.006235   -0.000009   -0.000077    0.000094
    -0.010064   -0.006761   -0.027646    0.000139    0.000015    0.000067
    -0.000269    0.000068   -0.000153   -0.003267   -0.005745   -0.000640
     0.000099    0.000189    0.000246    0.000634   -0.002520   -0.000929
    -0.000110   -0.000020    0.000106    0.003610    0.006776    0.000427
    -0.000157    0.000006   -0.000095   -0.001478    0.001929    0.000143
     0.000085    0.000018    0.000019   -0.000119    0.000394    0.000448
    -0.000042    0.000052   -0.000128    0.002693   -0.003142   -0.000795


    -0.000271    0.000692   -0.000087    0.000042   -0.000124    0.000008
     0.000770   -0.000959    0.000291    0.000065   -0.000091   -0.000015
     0.000127   -0.000032    0.000490    0.000043   -0.000103   -0.000018
     0.000446   -0.000392   -0.000052   -0.000006   -0.000034    0.000015
    -0.000240    0.000128   -0.000050    0.000008   -0.000006    0.000003
     0.000652   -0.000528    0.000337    0.000058   -0.000052   -0.000019
     0.000335   -0.000563    0.000441    0.000040   -0.000095    0.000005
    -0.000277    0.000096    0.000163    0.000037   -0.000001    0.000012
     0.000547   -0.000679    0.000255    0.000016   -0.000049   -0.000020
    -0.000031    0.000032    0.000012    0.000649    0.000509    0.000231
    -0.000014   -0.000006   -0.000003   -0.000066   -0.000048    0.000078
     0.000084    0.000007    0.000000    0.000914    0.000385    0.000579
     0.000043    0.000076    0.000038   -0.001095   -0.001087   -0.000461
    -0.000043   -0.000010    0.000054   -0.001264   -0.001084   -0.000277
     0.000087    0.000068    0.000022   -0.000009   -0.000076    0.000700
     0.008693    0.001576   -0.014778    0.000125   -0.000105   -0.000045
     0.001620   -0.000691    0.000860    0.000116   -0.000134    0.000076
     0.014156   -0.000908   -0.016589    0.000003    0.000011   -0.000022
     0.138232    0.014713    0.144160    0.000433   -0.000458    0.000153
     0.014713    0.037578    0.007768    0.000244   -0.000344    0.000441
     0.144160    0.007768    0.241326    0.000063   -0.000690    0.000128
     0.000433    0.000244    0.000063    0.135984   -0.029433    0.140687
    -0.000458   -0.000344   -0.000690   -0.029433    0.050337   -0.033619
     0.000153    0.000441    0.000128    0.140687   -0.033619    0.245196
     0.000119    0.000114   -0.000005    0.008918   -0.002918   -0.014467
    -0.000113   -0.000110    0.000001   -0.003276    0.001081    0.002710
     0.000027   -0.000060   -0.000011    0.013021   -0.001973   -0.015103
    -0.000027    0.000554   -0.000220   -0.000189   -0.000593    0.000128
     0.000067    0.000654   -0.000518    0.000072    0.000945    0.000358
    -0.001164   -0.000072    0.000424   -0.000869    0.000445    0.000288
    -0.001952   -0.000961    0.000683   -0.000229    0.001138    0.000593
    -0.003363   -0.004100    0.000809    0.002145   -0.004635   -0.000841
    -0.000414    0.002072    0.001661    0.000389   -0.001785    0.001403
     0.000025   -0.000112    0.000063   -0.037017    0.005634   -0.037824
     0.000321    0.000661    0.000081    0.007904   -0.011517    0.010105
     0.000108   -0.000284   -0.000034   -0.036309    0.007438   -0.068107
    -0.036733   -0.001086   -0.038781    0.000026    0.000141    0.000090
    -0.004609   -0.007296   -0.003182   -0.000242    0.000853   -0.000146
    -0.039112    0.001121   -0.066475    0.000205    0.000206    0.000071
     0.000039   -0.000118    0.000020   -0.001913   -0.002279    0.000513
    -0.000006   -0.000087   -0.000088    0.002032    0.001538   -0.000004
    -0.000140    0.000002    0.000065   -0.006471   -0.004990   -0.001525
    -0.003372   -0.005908    0.000761   -0.002436    0.006046    0.000566
     0.000650   -0.002483    0.000935    0.000449   -0.002745   -0.000791
    -0.003489   -0.006597    0.000536   -0.002701    0.007364    0.000762
    -0.001528    0.001974   -0.000110   -0.000043    0.000194    0.000015
    -0.000154    0.000442   -0.000456   -0.000023   -0.000113    0.000048
    -0.002669    0.003083   -0.000733   -0.000070    0.000106    0.000077


    -0.000009   -0.000033   -0.000019   -0.000091    0.000088   -0.000094
     0.000005   -0.000006   -0.000004    0.000306   -0.000239   -0.000380
    -0.000061    0.000056   -0.000018    0.000467   -0.000726   -0.000699
     0.000039   -0.000120   -0.000014   -0.000876    0.000851    0.000561
     0.000064   -0.000093    0.000014   -0.000178    0.001191    0.000291
    -0.000045    0.000106   -0.000016    0.000776   -0.001158   -0.001554
     0.000036   -0.000093   -0.000008   -0.000446    0.000706    0.000389
     0.000035    0.000000   -0.000011    0.000271    0.000002   -0.000266
    -0.000018    0.000050   -0.000019    0.000363   -0.000518   -0.000476
    -0.001099   -0.001151    0.000494   -0.000423   -0.000561    0.000050
    -0.001257   -0.001073    0.000274   -0.000015    0.000662   -0.000081
     0.000052    0.000081    0.000693    0.000024    0.000999   -0.000349
     0.000610    0.000489   -0.000245   -0.000126   -0.000033   -0.000018
    -0.000023   -0.000033   -0.000090   -0.000211   -0.000181    0.000142
    -0.000920   -0.000443    0.000616    0.000030    0.000616   -0.000271
     0.000422   -0.000468   -0.000197   -0.001925   -0.003284    0.000449
     0.000270   -0.000249   -0.000528   -0.001186   -0.004125   -0.002061
    -0.000062    0.000727    0.000213   -0.000537   -0.000726    0.001664
     0.000119   -0.000113    0.000027   -0.000027    0.000067   -0.001164
     0.000114   -0.000110   -0.000060    0.000554    0.000654   -0.000072
    -0.000005    0.000001   -0.000011   -0.000220   -0.000518    0.000424
     0.008918   -0.003276    0.013021   -0.000189    0.000072   -0.000869
    -0.002918    0.001081   -0.001973   -0.000593    0.000945    0.000445
    -0.014467    0.002710   -0.015103    0.000128    0.000358    0.000288
     0.121628   -0.023374   -0.135345   -0.000297    0.002168   -0.000195
    -0.023374    0.048033    0.027954    0.001200   -0.004753    0.001519
    -0.135345    0.027954    0.261692   -0.000461    0.000565    0.001497
    -0.000297    0.001200   -0.000461    0.152842   -0.003608   -0.127738
     0.002168   -0.004753    0.000565   -0.003608    0.054886    0.006283
    -0.000195    0.001519    0.001497   -0.127738    0.006283    0.230116
    -0.000146   -0.000605   -0.000111    0.012160   -0.001487    0.014280
    -0.000007    0.000958   -0.000325   -0.001155    0.000379   -0.000186
     0.000889   -0.000440    0.000219   -0.016325    0.000910   -0.025502
    -0.033154    0.004114    0.036303   -0.002421    0.004996   -0.000196
     0.006258   -0.010881   -0.008426    0.001801   -0.002268   -0.000978
     0.034765   -0.005685   -0.072478    0.003241   -0.007236    0.000526
     0.000015    0.000165   -0.000072   -0.004223   -0.004696    0.000824
    -0.000244    0.000855    0.000191   -0.001965   -0.000659    0.001580
    -0.000213   -0.000218    0.000075    0.004853    0.006648    0.000211
    -0.001674   -0.001982   -0.000539    0.000528    0.001039   -0.000293
     0.001820    0.001362   -0.000035    0.000116    0.000558   -0.000440
     0.006612    0.005223   -0.001647   -0.000376   -0.002197    0.000558
    -0.002310    0.005702   -0.000238   -0.037512    0.001516    0.031195
     0.000410   -0.002593    0.000668    0.002210   -0.012798   -0.002527
     0.002863   -0.007759    0.000421    0.032247   -0.001460   -0.056363
    -0.000039    0.000195   -0.000007    0.001115   -0.001513   -0.001034
    -0.000024   -0.000109   -0.000056   -0.000717    0.000393    0.000740
     0.000075   -0.000110    0.000079   -0.001496    0.002041    0.001891


    -0.000925    0.000913   -0.000588    0.000116    0.000208    0.000030
    -0.000151    0.001191   -0.000337   -0.000035    0.000133    0.000033
    -0.000801    0.001140   -0.001590    0.000083    0.000113    0.000050
    -0.000096    0.000100    0.000098    0.000116    0.000203   -0.000031
     0.000317   -0.000251    0.000384   -0.000033    0.000135   -0.000030
    -0.000485    0.000742   -0.000703   -0.000087   -0.000108    0.000054
    -0.000462    0.000726   -0.000384    0.000090    0.000169   -0.000001
     0.000294   -0.000007    0.000265   -0.000233   -0.000079    0.000007
    -0.000384    0.000524   -0.000484   -0.000001    0.000005    0.000048
    -0.000133   -0.000051    0.000026   -0.001054   -0.001606    0.002022
    -0.000215   -0.000170   -0.000135   -0.001650   -0.000006    0.001661
    -0.000030   -0.000575   -0.000295    0.001254    0.001058   -0.001030
    -0.000411   -0.000583   -0.000063   -0.001129   -0.001627   -0.002011
    -0.000019    0.000660    0.000117   -0.001693    0.000016   -0.001606
    -0.000024   -0.000925   -0.000377   -0.001255   -0.000998   -0.000953
    -0.000056   -0.000001    0.001216    0.000033    0.000321   -0.000090
     0.000500    0.000607    0.000070   -0.000086    0.000705    0.000319
     0.000220    0.000478    0.000351   -0.000077   -0.000108   -0.000024
    -0.001952   -0.003363   -0.000414    0.000025    0.000321    0.000108
    -0.000961   -0.004100    0.002072   -0.000112    0.000661   -0.000284
     0.000683    0.000809    0.001661    0.000063    0.000081   -0.000034
    -0.000229    0.002145    0.000389   -0.037017    0.007904   -0.036309
     0.001138   -0.004635   -0.001785    0.005634   -0.011517    0.007438
     0.000593   -0.000841    0.001403   -0.037824    0.010105   -0.068107
    -0.000146   -0.000007    0.000889   -0.033154    0.006258    0.034765
    -0.000605    0.000958   -0.000440    0.004114   -0.010881   -0.005685
    -0.000111   -0.000325    0.000219    0.036303   -0.008426   -0.072478
     0.012160   -0.001155   -0.016325   -0.002421    0.001801    0.003241
    -0.001487    0.000379    0.000910    0.004996   -0.002268   -0.007236
     0.014280   -0.000186   -0.025502   -0.000196   -0.000978    0.000526
     0.159895   -0.006622    0.122485   -0.002586    0.002026   -0.003059
    -0.006622    0.057121   -0.008453    0.005404   -0.002587    0.006829
     0.122485   -0.008453    0.209063    0.000424    0.000899    0.000868
    -0.002586    0.005404    0.000424    0.039360   -0.003066    0.000272
     0.002026   -0.002587    0.000899   -0.003066    0.025639   -0.000391
    -0.003059    0.006829    0.000868    0.000272   -0.000391    0.054430
    -0.004524   -0.004951   -0.000822    0.001551    0.000487   -0.000045
    -0.002138   -0.000600   -0.001673   -0.000938   -0.002324   -0.000001
    -0.004733   -0.006388    0.000279   -0.000048   -0.000025   -0.000019
     0.000557    0.001070    0.000307   -0.007998   -0.001007    0.000039
     0.000126    0.000510    0.000437   -0.000763   -0.006595    0.000013
     0.000357    0.002093    0.000631    0.000037    0.000003   -0.004728
    -0.039047    0.002203   -0.029529   -0.007744    0.002208    0.000095
     0.003014   -0.013111    0.003151    0.002639   -0.008852   -0.000084
    -0.030652    0.002079   -0.051026    0.000107   -0.000103   -0.006496
     0.001183   -0.001600    0.001041   -0.000393   -0.000706    0.000007
    -0.000748    0.000381   -0.000744    0.000213    0.000071   -0.000004
     0.001556   -0.002090    0.001913    0.000005   -0.000008   -0.000122


    -0.000298   -0.000084   -0.000691   -0.000184   -0.000050   -0.000056
     0.000467   -0.000228    0.000685    0.000034    0.000027   -0.000064
    -0.000252   -0.000076   -0.000184   -0.000120   -0.000025   -0.000164
    -0.000274   -0.000092    0.000680   -0.000181   -0.000050    0.000060
     0.000452   -0.000220   -0.000686    0.000034    0.000025    0.000063
     0.000249    0.000064   -0.000190    0.000118    0.000026   -0.000169
    -0.000028   -0.000234   -0.000003   -0.000105    0.000006    0.000002
    -0.001050   -0.001331    0.000005    0.000198    0.000010   -0.000004
    -0.000007   -0.000010    0.000135   -0.000001   -0.000000   -0.000083
     0.000212   -0.000152   -0.000035   -0.010584   -0.003934    0.009816
     0.000052    0.000061    0.000025   -0.003896   -0.008169    0.007139
    -0.000136    0.000064    0.000073    0.008892    0.006616   -0.028536
     0.000220   -0.000155    0.000028   -0.011027   -0.004002   -0.010064
     0.000052    0.000053   -0.000023   -0.003988   -0.008085   -0.006761
     0.000132   -0.000054    0.000068   -0.009134   -0.006235   -0.027646
    -0.034798   -0.004475    0.038301    0.000041   -0.000009    0.000139
    -0.000998   -0.007296   -0.001255   -0.000138   -0.000077    0.000015
     0.037968    0.003201   -0.068391   -0.000012    0.000094    0.000067
    -0.036733   -0.004609   -0.039112    0.000039   -0.000006   -0.000140
    -0.001086   -0.007296    0.001121   -0.000118   -0.000087    0.000002
    -0.038781   -0.003182   -0.066475    0.000020   -0.000088    0.000065
     0.000026   -0.000242    0.000205   -0.001913    0.002032   -0.006471
     0.000141    0.000853    0.000206   -0.002279    0.001538   -0.004990
     0.000090   -0.000146    0.000071    0.000513   -0.000004   -0.001525
     0.000015   -0.000244   -0.000213   -0.001674    0.001820    0.006612
     0.000165    0.000855   -0.000218   -0.001982    0.001362    0.005223
    -0.000072    0.000191    0.000075   -0.000539   -0.000035   -0.001647
    -0.004223   -0.001965    0.004853    0.000528    0.000116   -0.000376
    -0.004696   -0.000659    0.006648    0.001039    0.000558   -0.002197
     0.000824    0.001580    0.000211   -0.000293   -0.000440    0.000558
    -0.004524   -0.002138   -0.004733    0.000557    0.000126    0.000357
    -0.004951   -0.000600   -0.006388    0.001070    0.000510    0.002093
    -0.000822   -0.001673    0.000279    0.000307    0.000437    0.000631
     0.001551   -0.000938   -0.000048   -0.007998   -0.000763    0.000037
     0.000487   -0.002324   -0.000025   -0.001007   -0.006595    0.000003
    -0.000045   -0.000001   -0.000019    0.000039    0.000013   -0.004728
     0.036760    0.003553    0.000165   -0.000629    0.000075    0.000019
     0.003553    0.022107   -0.000008    0.000502   -0.000088   -0.000022
     0.000165   -0.000008    0.048782    0.000016   -0.000009   -0.000128
    -0.000629    0.000502    0.000016    0.032700    0.010692    0.000269
     0.000075   -0.000088   -0.000009    0.010692    0.027813   -0.000430
     0.000019   -0.000022   -0.000128    0.000269   -0.000430    0.070570
    -0.008686   -0.001919    0.000049    0.001270   -0.001791   -0.000061
    -0.003809   -0.007835    0.000042   -0.000349   -0.003272   -0.000030
     0.000074    0.000043   -0.006370   -0.000040   -0.000005   -0.000273
    -0.003021    0.002332    0.000025    0.000466    0.000013   -0.000009
     0.002079   -0.003243   -0.000028   -0.000197   -0.000002    0.000005
     0.000017    0.000004   -0.001706    0.000002    0.000000    0.000285


     0.000054   -0.000021    0.000108   -0.007601   -0.000006   -0.006700
     0.000057    0.000208    0.000121    0.000512   -0.002537    0.000996
     0.000036   -0.000045    0.000396   -0.006490    0.000217   -0.011744
     0.000045   -0.000014   -0.000098   -0.007368   -0.000016    0.006490
     0.000045    0.000211   -0.000115    0.000495   -0.002561   -0.000974
    -0.000012    0.000039    0.000391    0.006272   -0.000187   -0.011684
     0.000338    0.000227    0.000002   -0.014257   -0.011264   -0.000000
     0.000306   -0.000329   -0.000011   -0.011995   -0.012380    0.000010
     0.000012   -0.000004    0.000313   -0.000004    0.000006   -0.001990
    -0.000248    0.000104    0.000123   -0.000151    0.000084    0.000039
     0.000071    0.000191    0.000024    0.000005    0.000017   -0.000052
     0.000159   -0.000262    0.000090    0.000098   -0.000021   -0.000129
    -0.000269    0.000099   -0.000110   -0.000157    0.000085   -0.000042
     0.000068    0.000189   -0.000020    0.000006    0.000018    0.000052
    -0.000153    0.000246    0.000106   -0.000095    0.000019   -0.000128
    -0.003267    0.000634    0.003610   -0.001478   -0.000119    0.002693
    -0.005745   -0.002520    0.006776    0.001929    0.000394   -0.003142
    -0.000640   -0.000929    0.000427    0.000143    0.000448   -0.000795
    -0.003372    0.000650   -0.003489   -0.001528   -0.000154   -0.002669
    -0.005908   -0.002483   -0.006597    0.001974    0.000442    0.003083
     0.000761    0.000935    0.000536   -0.000110   -0.000456   -0.000733
    -0.002436    0.000449   -0.002701   -0.000043   -0.000023   -0.000070
     0.006046   -0.002745    0.007364    0.000194   -0.000113    0.000106
     0.000566   -0.000791    0.000762    0.000015    0.000048    0.000077
    -0.002310    0.000410    0.002863   -0.000039   -0.000024    0.000075
     0.005702   -0.002593   -0.007759    0.000195   -0.000109   -0.000110
    -0.000238    0.000668    0.000421   -0.000007   -0.000056    0.000079
    -0.037512    0.002210    0.032247    0.001115   -0.000717   -0.001496
     0.001516   -0.012798   -0.001460   -0.001513    0.000393    0.002041
     0.031195   -0.002527   -0.056363   -0.001034    0.000740    0.001891
    -0.039047    0.003014   -0.030652    0.001183   -0.000748    0.001556
     0.002203   -0.013111    0.002079   -0.001600    0.000381   -0.002090
    -0.029529    0.003151   -0.051026    0.001041   -0.000744    0.001913
    -0.007744    0.002639    0.000107   -0.000393    0.000213    0.000005
     0.002208   -0.008852   -0.000103   -0.000706    0.000071   -0.000008
     0.000095   -0.000084   -0.006496    0.000007   -0.000004   -0.000122
    -0.008686   -0.003809    0.000074   -0.003021    0.002079    0.000017
    -0.001919   -0.007835    0.000043    0.002332   -0.003243    0.000004
     0.000049    0.000042   -0.006370    0.000025   -0.000028   -0.001706
     0.001270   -0.000349   -0.000040    0.000466   -0.000197    0.000002
    -0.001791   -0.003272   -0.000005    0.000013   -0.000002    0.000000
    -0.000061   -0.000030   -0.000273   -0.000009    0.000005    0.000285
     0.037472   -0.000104   -0.000631    0.000163   -0.000077   -0.000038
    -0.000104    0.030013   -0.000057   -0.000597   -0.001556    0.000011
    -0.000631   -0.000057    0.040225   -0.000020    0.000006   -0.000816
     0.000163   -0.000597   -0.000020    0.023091    0.007058    0.000148
    -0.000077   -0.001556    0.000006    0.007058    0.015307   -0.000008
    -0.000038    0.000011   -0.000816    0.000148   -0.000008    0.019520

 Vectors for Translations and Rotations


     0.309482    0.000000    0.000000   -0.362236   -0.256353    0.036484
     0.000000    0.309482    0.000000    0.035233   -0.084112    0.155221
     0.000000    0.000000    0.309482    0.297517    0.020258    0.247098
     0.309482    0.000000    0.000000    0.364687   -0.260204    0.006583
     0.000000    0.309482    0.000000   -0.038086   -0.107496   -0.142411
     0.000000    0.000000    0.309482    0.293825    0.020279    0.247270
     0.309482    0.000000    0.000000   -0.001833   -0.369373    0.030945
     0.000000    0.309482    0.000000    0.001338    0.144902   -0.013048
     0.000000    0.000000    0.309482   -0.261640    0.032596    0.381683
     0.309482    0.000000    0.000000    0.327190    0.409767   -0.047848
     0.000000    0.309482    0.000000   -0.033600   -0.107833   -0.123974
     0.000000    0.000000    0.309482    0.134237   -0.035484   -0.418726
     0.309482    0.000000    0.000000   -0.323999    0.412444   -0.020998
     0.000000    0.309482    0.000000    0.032055   -0.089156    0.142837
     0.000000    0.000000    0.309482    0.143251   -0.035467   -0.418338
     0.077685    0.000000    0.000000   -0.065244   -0.015228    0.003985
     0.000000    0.077685    0.000000    0.007110    0.053155    0.022355
     0.000000    0.000000    0.077685   -0.119886    0.001948    0.020569
     0.077685    0.000000    0.000000    0.063573   -0.015955   -0.001310
     0.000000    0.077685    0.000000   -0.005878    0.049400   -0.030420
     0.000000    0.000000    0.077685   -0.121474    0.001960    0.020682
     0.077685    0.000000    0.000000    0.062401    0.068814   -0.008345
     0.000000    0.077685    0.000000   -0.005745    0.042294   -0.028967
     0.000000    0.000000    0.077685   -0.124811   -0.005186   -0.064297
     0.077685    0.000000    0.000000   -0.067656    0.068567   -0.002917
     0.000000    0.077685    0.000000    0.007360    0.045365    0.024373
     0.000000    0.000000    0.077685   -0.121218   -0.005126   -0.063508
     0.077685    0.000000    0.000000    0.060603    0.021358   -0.004305
     0.000000    0.077685    0.000000   -0.006205   -0.012749   -0.023810
     0.000000    0.000000    0.077685    0.020633   -0.001941   -0.022616
     0.077685    0.000000    0.000000   -0.056868    0.021461    0.000571
     0.000000    0.077685    0.000000    0.005632   -0.010010    0.024372
     0.000000    0.000000    0.077685    0.023882   -0.001914   -0.022231
     0.268062    0.000000    0.000000   -0.004742    0.221988   -0.018355
     0.000000    0.268062    0.000000    0.001674    0.089527   -0.004588
     0.000000    0.000000    0.268062   -0.271266   -0.017329   -0.211728
     0.268062    0.000000    0.000000   -0.000853   -0.049639    0.004184
     0.000000    0.268062    0.000000    0.001230    0.111853   -0.009265
     0.000000    0.000000    0.268062   -0.259508    0.005563    0.060525
     0.268062    0.000000    0.000000   -0.000044    0.322202   -0.026925
     0.000000    0.268062    0.000000   -0.000033   -0.035847    0.004451
     0.000000    0.000000    0.268062    0.008413   -0.027274   -0.323889
     0.289571    0.000000    0.000000    0.003155    0.085672   -0.007291
     0.000000    0.289571    0.000000    0.000130    0.033129   -0.003706
     0.000000    0.000000    0.289571   -0.101658   -0.006706   -0.081864
     0.430666    0.000000    0.000000   -0.000774   -0.346521    0.028992
     0.000000    0.430666    0.000000   -0.000085    0.019607   -0.002857
     0.000000    0.000000    0.430666    0.037042    0.029090    0.346443

 The Projection Matrix


     0.705959   -0.014463    0.103949   -0.030620   -0.036157    0.102611
    -0.014463    0.871812   -0.047133   -0.035757   -0.081373   -0.047028
     0.103949   -0.047133    0.754237   -0.104856    0.048699   -0.244708
    -0.030620   -0.035757   -0.104856    0.703475   -0.013144   -0.103505
    -0.036157   -0.081373    0.048699   -0.013144    0.870934    0.048585
     0.102611   -0.047028   -0.244708   -0.103505    0.048585    0.756334
    -0.192262   -0.035808    0.000382   -0.191427   -0.035369    0.000377
     0.038107   -0.081613   -0.000109    0.037302   -0.082010   -0.000105
    -0.100345   -0.047285   -0.112910    0.101386    0.047895   -0.113942
     0.129532    0.030366   -0.093823   -0.108163    0.049696   -0.092615
    -0.035291   -0.084422    0.042815   -0.014989   -0.126305    0.042714
     0.054806    0.057281   -0.031531   -0.055431   -0.058333   -0.030963
    -0.106646    0.049366    0.093228    0.129837    0.029006    0.092027
    -0.016455   -0.126579   -0.043025   -0.035829   -0.083800   -0.042930
     0.058061    0.056904   -0.034309   -0.058716   -0.057933   -0.033708
    -0.051725    0.000399    0.018735   -0.004237   -0.003554    0.018494
     0.015386   -0.023292   -0.008716    0.011091   -0.014874   -0.008695
    -0.043678    0.001195    0.006504    0.044092   -0.001427    0.006058
    -0.005056   -0.003379   -0.018267   -0.051369    0.000520   -0.018032
     0.011644   -0.014958    0.008265    0.015198   -0.023288    0.008247
    -0.044254    0.001235    0.006948    0.044674   -0.001470    0.006496
     0.016507    0.004885   -0.017897   -0.028838    0.008585   -0.017667
     0.009818   -0.015786    0.008010    0.013291   -0.023840    0.007993
    -0.044194    0.013941    0.029084    0.044591   -0.014468    0.028634
    -0.030866    0.008604    0.019461    0.018492    0.004378    0.019210
     0.013406   -0.024269   -0.009131    0.008960   -0.015414   -0.009109
    -0.042907    0.013698    0.027819    0.043291   -0.014212    0.027383
     0.003543    0.000329   -0.017399   -0.040557    0.003991   -0.017175
    -0.004647   -0.021200    0.007988   -0.000898   -0.029040    0.007969
     0.007802    0.002620   -0.024553   -0.007881   -0.002644   -0.024473
    -0.039161    0.003720    0.016343    0.002277    0.000222    0.016133
    -0.001415   -0.028866   -0.007495   -0.004819   -0.021433   -0.007478
     0.008971    0.002448   -0.025615   -0.009061   -0.002462   -0.025523
    -0.027101    0.021688    0.001449   -0.023348    0.021068    0.001430
[...]
 O          0.005  0.006  0.007    0.049 -0.158  0.130    0.029  0.022  0.021
 H         -0.548  0.240 -0.189   -0.101 -0.180  0.025    0.023  0.116  0.038
 H          0.542 -0.241 -0.202   -0.122 -0.178 -0.015   -0.013 -0.122  0.039
 H         -0.044  0.015  0.011   -0.064 -0.144  0.032   -0.388  0.122  0.180
 H          0.045 -0.020  0.008    0.001 -0.136 -0.009    0.399 -0.118  0.157
 H         -0.197 -0.147 -0.153    0.138 -0.298 -0.004    0.404 -0.195  0.288
 H          0.187  0.146 -0.156    0.103 -0.273  0.016   -0.383  0.175  0.302
 C         -0.000  0.000 -0.024    0.098  0.226 -0.006   -0.004  0.001 -0.115
 C          0.002  0.000  0.185   -0.140 -0.202 -0.002    0.004  0.004  0.020
 C         -0.001  0.002  0.006   -0.277  0.584  0.007    0.002 -0.005  0.015
 N          0.001  0.001 -0.014    0.164 -0.128 -0.007   -0.004  0.001 -0.036
 P         -0.000 -0.000 -0.024    0.003  0.025  0.000   -0.001 -0.000  0.002
 TransDip  -0.002  0.001 -0.084    0.014 -0.026 -0.001   -0.001 -0.007  0.011

 Mode:                19                     20                     21
 Frequency:       850.27                 919.41                 935.37
 Force Cnst:      2.7205                 0.6449                 1.6320
 Red. Mass:       6.3868                 1.2949                 3.1660
 IR Active:          YES                    YES                    YES
 IR Intens:       48.030                 10.118                  6.449
 Raman Active:       YES                    YES                    YES
               X      Y      Z        X      Y      Z        X      Y      Z
 O          0.012 -0.000  0.020    0.014 -0.003  0.013    0.032  0.000  0.041
 O          0.011  0.000 -0.020   -0.021  0.003  0.024    0.032  0.000 -0.042
 O         -0.007 -0.005  0.000    0.003  0.002 -0.005   -0.028 -0.043 -0.000
 O         -0.012  0.010 -0.301   -0.027 -0.022  0.031    0.011 -0.019  0.012
 O         -0.005  0.007  0.302    0.029  0.022  0.030    0.009 -0.020 -0.014
 H          0.026  0.104 -0.011   -0.014 -0.441 -0.055    0.310 -0.490  0.048
 H          0.024  0.105  0.011    0.016  0.443 -0.056    0.310 -0.482 -0.058
 H         -0.312 -0.417  0.028   -0.304 -0.219  0.054    0.091  0.005  0.006
 H         -0.310 -0.414 -0.026    0.319  0.221  0.047    0.060  0.000 -0.018
 H         -0.068  0.053  0.003   -0.303 -0.138 -0.190   -0.128 -0.230  0.008
 H         -0.066  0.052  0.002    0.280  0.141 -0.196   -0.117 -0.225 -0.014
 C         -0.210 -0.218  0.001    0.000 -0.003 -0.122    0.089 -0.016  0.003
 C          0.043  0.089 -0.001    0.001  0.003 -0.023    0.145  0.298 -0.003
 C          0.323  0.165 -0.005   -0.001 -0.000  0.011   -0.078  0.081  0.001
 N         -0.072  0.004  0.003   -0.002  0.000  0.046   -0.165 -0.122  0.002
 P         -0.005 -0.005  0.000    0.002 -0.001 -0.004   -0.032  0.003  0.001
 TransDip   0.130  0.180 -0.001    0.005 -0.003 -0.102   -0.045 -0.067  0.004

 Mode:                22                     23                     24
 Frequency:       940.69                 969.15                1003.84
 Force Cnst:      7.3105                 3.4460                 0.6308
 Red. Mass:      14.0219                 6.2270                 1.0624
 IR Active:          YES                    YES                    YES
 IR Intens:       65.521                 16.973                  2.746
 Raman Active:       YES                    YES                    YES
               X      Y      Z        X      Y      Z        X      Y      Z
 O         -0.301  0.020 -0.418    0.047  0.001  0.059   -0.010  0.001 -0.010
 O         -0.310  0.020  0.442    0.049  0.001 -0.063    0.009 -0.000 -0.009
 O          0.230  0.195  0.001   -0.053 -0.057  0.000    0.001  0.000  0.003
 O          0.017 -0.018 -0.011    0.014 -0.035  0.021   -0.018 -0.011  0.019
 O          0.011 -0.023  0.004    0.017 -0.033 -0.019    0.019  0.012  0.020
 H          0.052  0.037  0.011   -0.043 -0.183 -0.001    0.087  0.384  0.053
 H          0.074 -0.099 -0.004   -0.055 -0.225  0.012   -0.079 -0.393  0.051
 H          0.149 -0.121  0.027    0.242 -0.200  0.037   -0.119 -0.492 -0.041
 H          0.077 -0.195 -0.044    0.252 -0.145 -0.059    0.124  0.513 -0.025
 H         -0.090  0.093  0.067   -0.096  0.386  0.036   -0.037  0.264 -0.026
 H         -0.196  0.049  0.014   -0.117  0.342 -0.010    0.037 -0.251 -0.030
 C          0.161 -0.173  0.007    0.264 -0.356 -0.014   -0.003  0.002 -0.034
 C          0.038  0.138  0.009   -0.032 -0.142 -0.000   -0.001  0.004 -0.025
 C         -0.076  0.098  0.001   -0.099  0.134  0.003    0.000 -0.002  0.002
 N         -0.165  0.048 -0.004   -0.134  0.381  0.007    0.002 -0.006  0.015
 P          0.207 -0.139 -0.016   -0.034  0.032  0.002    0.001 -0.000  0.004
 TransDip   0.217 -0.141 -0.013   -0.029  0.129  0.002    0.002  0.000 -0.053

 Mode:                25                     26                     27
 Frequency:      1046.64                1051.68                1162.43
 Force Cnst:      6.8689                 1.0421                 1.1842
 Red. Mass:      10.6424                 1.5992                 1.4875
 IR Active:          YES                    YES                    YES
 IR Intens:      197.011                 16.535                  1.410
 Raman Active:       YES                    YES                    YES
               X      Y      Z        X      Y      Z        X      Y      Z
 O         -0.239  0.020 -0.346    0.021 -0.005  0.031   -0.004  0.001 -0.005
 O          0.224 -0.021 -0.333   -0.000 -0.003 -0.000   -0.003  0.001  0.004
 O          0.016  0.016 -0.015    0.011  0.013  0.001   -0.002 -0.001 -0.000
 O          0.007 -0.008  0.003    0.007 -0.010 -0.000    0.018  0.005 -0.033
 O         -0.002  0.001  0.003    0.008 -0.011  0.000    0.018  0.005  0.032
 H          0.186 -0.041  0.011   -0.114  0.617 -0.119    0.070 -0.166  0.072
 H         -0.245  0.422  0.089   -0.088  0.590  0.115    0.074 -0.147 -0.075
 H          0.088  0.040 -0.018    0.122  0.253 -0.018    0.260  0.605 -0.108
 H         -0.014  0.104 -0.006    0.121  0.254  0.018    0.252  0.577  0.113
 H         -0.133 -0.288 -0.077   -0.076  0.000  0.020    0.078  0.102 -0.013
 H          0.070  0.271 -0.093   -0.092 -0.033 -0.006    0.073  0.107  0.016
 C          0.010 -0.018  0.025    0.021 -0.048 -0.002   -0.102 -0.124  0.002
 C          0.042 -0.013 -0.111    0.134 -0.047  0.004   -0.062  0.032  0.002
 C         -0.014  0.018 -0.011   -0.042  0.056  0.001   -0.042  0.020  0.000
 N         -0.036 -0.023  0.038   -0.107 -0.083 -0.001    0.073 -0.020 -0.003
 P         -0.000 -0.005  0.380   -0.016  0.006 -0.018    0.007 -0.003  0.000
 TransDip  -0.001  0.003  0.450   -0.061  0.102 -0.054    0.035  0.015  0.001

 Mode:                28                     29                     30
 Frequency:      1212.48                1249.61                1299.33
 Force Cnst:      1.2364                12.6298                 1.9600
 Red. Mass:       1.4275                13.7277                 1.9705
 IR Active:          YES                    YES                    YES
 IR Intens:        5.262                190.068                 86.244
 Raman Active:       YES                    YES                    YES
               X      Y      Z        X      Y      Z        X      Y      Z
 O         -0.000 -0.000  0.003    0.081  0.002  0.093    0.003 -0.001 -0.001
 O          0.000  0.000  0.003    0.074  0.003 -0.084    0.015  0.003 -0.019
 O         -0.002 -0.002  0.001    0.492  0.455  0.000    0.027  0.022 -0.003
 O          0.004  0.001 -0.005   -0.015 -0.014  0.030    0.049  0.040 -0.092
 O         -0.004 -0.002 -0.005   -0.016 -0.014 -0.031    0.050  0.034  0.084
 H          0.153  0.366  0.047    0.019 -0.201  0.008    0.061 -0.096  0.096
 H         -0.145 -0.360  0.045    0.004 -0.251 -0.004    0.205  0.174 -0.124
 H         -0.102  0.447  0.068   -0.004  0.082 -0.000   -0.103  0.003  0.059
 H          0.107 -0.443  0.045   -0.002  0.068  0.005    0.019 -0.250 -0.035
 H         -0.330  0.024 -0.106    0.008 -0.333 -0.006    0.048  0.855  0.017
 H          0.310  0.001 -0.110    0.043 -0.310 -0.015   -0.033  0.018  0.015
 C         -0.000  0.000 -0.084   -0.031 -0.020 -0.000    0.060  0.034 -0.046
 C         -0.002  0.000 -0.077    0.006 -0.019 -0.004   -0.029 -0.008  0.042
 C         -0.000  0.001  0.009    0.051  0.034  0.000   -0.149 -0.112  0.013
 N          0.003 -0.004  0.145    0.028  0.115  0.006   -0.023 -0.070 -0.003
 P          0.001  0.001 -0.005   -0.343 -0.242 -0.005   -0.025 -0.009  0.013
 TransDip   0.002  0.012 -0.073   -0.329 -0.294 -0.006   -0.258 -0.133  0.063

 Mode:                31                     32                     33
 Frequency:      1306.87                1323.88                1357.32
 Force Cnst:      1.5236                 1.4926                 1.3073
 Red. Mass:       1.5141                 1.4454                 1.2044
 IR Active:          YES                    YES                    YES
 IR Intens:       79.965                 79.394                173.703
 Raman Active:       YES                    YES                    YES
               X      Y      Z        X      Y      Z        X      Y      Z
 O          0.012  0.003  0.018    0.006  0.001  0.005    0.003  0.002  0.005
 O         -0.005 -0.003  0.011    0.002  0.000  0.001    0.002  0.001 -0.002
 O          0.009  0.007  0.004    0.008  0.007  0.001    0.011  0.009  0.000
 O          0.033  0.022 -0.056   -0.032 -0.024  0.057   -0.016 -0.011  0.027
 O          0.039  0.030  0.070   -0.033 -0.022 -0.054   -0.017 -0.010 -0.026
 H          0.130  0.203  0.037    0.445  0.174  0.329   -0.385 -0.171 -0.281
 H         -0.074 -0.168 -0.005    0.399  0.109 -0.335   -0.396 -0.199  0.295
 H          0.095 -0.241 -0.023   -0.109 -0.009  0.105    0.000 -0.029  0.014
 H         -0.088  0.113 -0.015   -0.151  0.078 -0.104   -0.018  0.007 -0.017
 H         -0.049 -0.521 -0.011   -0.000  0.215  0.001    0.049  0.391  0.002
 H          0.052  0.708 -0.009    0.009  0.486  0.008    0.053  0.534  0.008
 C          0.024  0.017  0.066    0.034 -0.008  0.013    0.019 -0.002  0.006
 C         -0.004 -0.006 -0.058   -0.071 -0.019 -0.010    0.022  0.038 -0.005
 C         -0.107 -0.081 -0.023    0.092  0.073 -0.003    0.046  0.039 -0.002
 N         -0.011 -0.008  0.002   -0.015 -0.069 -0.002    0.012 -0.083 -0.001
 P         -0.009 -0.003 -0.019   -0.008 -0.002 -0.004   -0.008 -0.004 -0.002
 TransDip  -0.192 -0.181 -0.111    0.154  0.239 -0.020    0.046  0.419 -0.009

 Mode:                34                     35                     36
 Frequency:      1378.65                1587.47                1626.86
 Force Cnst:      1.2160                 1.5811                15.6517
 Red. Mass:       1.0859                 1.0649                10.0371
 IR Active:          YES                    YES                    YES
 IR Intens:       19.989                 18.605                310.657
 Raman Active:       YES                    YES                    YES
               X      Y      Z        X      Y      Z        X      Y      Z
 O          0.002  0.001  0.001   -0.001  0.000  0.001   -0.001 -0.000 -0.001
 O          0.001  0.001 -0.001   -0.001 -0.000 -0.000    0.001 -0.000 -0.001
 O          0.003  0.003  0.000   -0.001 -0.001 -0.000    0.000  0.000 -0.001
 O         -0.006 -0.004  0.011   -0.000  0.000 -0.001    0.102  0.074 -0.275
 O         -0.006 -0.004 -0.011   -0.001 -0.001 -0.001   -0.103 -0.068 -0.261
 H          0.068  0.034  0.053    0.002  0.006  0.005    0.019  0.017  0.001
 H          0.065  0.032 -0.054    0.002  0.005 -0.005   -0.019 -0.016  0.003
 H          0.478 -0.283 -0.414    0.003 -0.005 -0.008   -0.133 -0.258  0.052
 H          0.496 -0.296  0.379    0.006 -0.007  0.008    0.140  0.260  0.055
 H         -0.027  0.088 -0.002    0.544 -0.027  0.433   -0.012 -0.174 -0.023
 H         -0.028  0.100  0.007    0.540 -0.028 -0.468   -0.034  0.176  0.017
 C         -0.061  0.039  0.003   -0.006  0.003 -0.001    0.000  0.000 -0.042
 C         -0.009 -0.007 -0.000   -0.008 -0.002 -0.000    0.000 -0.000 -0.010
 C          0.020  0.016 -0.000    0.001  0.000  0.004    0.002 -0.008  0.762
 N         -0.019 -0.012  0.000   -0.065  0.004  0.003    0.002 -0.000 -0.003
 P         -0.004 -0.001 -0.000    0.002 -0.000 -0.000   -0.000  0.000  0.001
 TransDip   0.066  0.127 -0.001    0.130 -0.047  0.004   -0.000 -0.007  0.564

 Mode:                37                     38                     39
 Frequency:      2952.13                3024.10                3089.82
 Force Cnst:      5.5009                 5.7663                 5.9371
 Red. Mass:       1.0713                 1.0702                 1.0555
 IR Active:          YES                    YES                    YES
 IR Intens:       95.735                 95.083                 19.977
 Raman Active:       YES                    YES                    YES
               X      Y      Z        X      Y      Z        X      Y      Z
 O         -0.001 -0.000 -0.002   -0.000 -0.000 -0.001   -0.000 -0.000  0.000
 O          0.000  0.000 -0.001    0.001  0.000 -0.002    0.000 -0.000 -0.000
 O         -0.001  0.000 -0.001    0.001 -0.000 -0.000   -0.001 -0.000 -0.000
 O         -0.000 -0.000 -0.000    0.000 -0.000 -0.000   -0.000 -0.000 -0.000
 O         -0.000  0.000 -0.000    0.000  0.000 -0.000   -0.000 -0.000 -0.000
 H         -0.005 -0.001  0.015    0.049 -0.006 -0.071   -0.373 -0.035  0.584
 H         -0.030  0.009 -0.038    0.019  0.002  0.035   -0.387 -0.036 -0.573
 H         -0.026 -0.003 -0.040    0.017 -0.004  0.029    0.063 -0.015  0.096
 H         -0.006  0.001  0.014    0.039 -0.000 -0.066    0.059 -0.011 -0.102
 H         -0.029 -0.001 -0.003   -0.587  0.026  0.795   -0.041  0.002  0.059
 H          0.628 -0.042  0.770    0.001  0.003 -0.034   -0.021  0.002 -0.031
 C          0.003  0.001  0.002   -0.005 -0.000  0.003   -0.010  0.002  0.000
 C          0.001 -0.002  0.001   -0.004  0.001  0.002    0.064  0.007 -0.001
 C          0.000  0.001  0.001   -0.000 -0.001  0.001    0.000  0.000  0.000
 N         -0.042  0.004 -0.055    0.042 -0.003 -0.055    0.004 -0.003 -0.002
 P          0.001 -0.001  0.002   -0.001  0.000  0.002    0.000  0.001  0.000
 TransDip   0.099 -0.280  0.100   -0.114  0.273  0.101    0.139  0.036  0.002

 Mode:                40                     41                     42
 Frequency:      3109.85                3165.83                3190.16
 Force Cnst:      6.0107                 6.5445                 6.6621
 Red. Mass:       1.0549                 1.1083                 1.1111
 IR Active:          YES                    YES                    YES
 IR Intens:       34.827                 29.045                 33.089
 Raman Active:       YES                    YES                    YES
               X      Y      Z        X      Y      Z        X      Y      Z
 O         -0.000 -0.000  0.000   -0.000  0.000  0.001   -0.000  0.000  0.000
 O          0.000 -0.000 -0.000    0.000 -0.000  0.001    0.000 -0.000 -0.000
 O         -0.000 -0.000 -0.000    0.000 -0.000  0.000    0.000 -0.000  0.000
 O          0.000  0.000 -0.000   -0.000 -0.000 -0.000    0.000 -0.000  0.001
 O          0.000  0.000  0.000    0.000  0.000 -0.000   -0.000  0.000  0.001
 H         -0.058 -0.008  0.090   -0.398 -0.025  0.575   -0.027 -0.003  0.038
 H         -0.064 -0.008 -0.093    0.414  0.026  0.568    0.026  0.003  0.036
 H         -0.384  0.104 -0.576   -0.027  0.005 -0.039    0.396 -0.099  0.563
 H         -0.346  0.082  0.587    0.024 -0.003 -0.038   -0.373  0.081  0.596
 H         -0.051  0.003  0.072   -0.020 -0.004  0.024   -0.021  0.006  0.026
 H         -0.031  0.003 -0.042    0.015  0.004  0.014    0.016 -0.006  0.017
 C          0.062 -0.016 -0.001    0.000 -0.000  0.007   -0.002  0.001 -0.097
 C          0.011  0.002  0.000   -0.001 -0.000 -0.095    0.000  0.000 -0.006
 C         -0.001 -0.001  0.000    0.000 -0.000  0.000   -0.000  0.000 -0.004
 N          0.006  0.000 -0.002    0.000  0.000 -0.003    0.000 -0.000 -0.003
 P         -0.000  0.000  0.000   -0.000 -0.000 -0.001   -0.000  0.000  0.000
 TransDip   0.186 -0.034  0.004   -0.003  0.001 -0.173   -0.006  0.006 -0.184

 STANDARD THERMODYNAMIC QUANTITIES AT   298.15 K  AND     1.00 ATM

   This Molecule has  4 Imaginary Frequencies
   Zero point vibrational energy:       65.711 kcal/mol

   Atom    1 Element O  Has Mass   15.99491
   Atom    2 Element O  Has Mass   15.99491
   Atom    3 Element O  Has Mass   15.99491
   Atom    4 Element O  Has Mass   15.99491
   Atom    5 Element O  Has Mass   15.99491
   Atom    6 Element H  Has Mass    1.00783
   Atom    7 Element H  Has Mass    1.00783
   Atom    8 Element H  Has Mass    1.00783
   Atom    9 Element H  Has Mass    1.00783
   Atom   10 Element H  Has Mass    1.00783
   Atom   11 Element H  Has Mass    1.00783
   Atom   12 Element C  Has Mass   12.00000
   Atom   13 Element C  Has Mass   12.00000
   Atom   14 Element C  Has Mass   12.00000
   Atom   15 Element N  Has Mass   14.00307
   Atom   16 Element P  Has Mass   30.97376
   Molecular Mass:   166.998360 amu
   Principal axes and moments of inertia in amu*Bohr^2:
                             1           2           3
    Eigenvalues --      685.10366  4054.88287  4061.88811
          X               0.10037     0.08293     0.99149
          Y               0.99494    -0.01276    -0.09966
          Z               0.00438     0.99647    -0.08379
   Rotational Symmetry Number is   1
   The Molecule is an Asymmetric Top
   Translational Enthalpy:        0.889 kcal/mol
   Rotational Enthalpy:           0.889 kcal/mol
   Vibrational Enthalpy:         68.887 kcal/mol
   gas constant (RT):             0.592 kcal/mol
   Translational Entropy:        41.246  cal/mol.K
   Rotational Entropy:           30.801  cal/mol.K
   Vibrational Entropy:          17.746  cal/mol.K

   Total Enthalpy:               71.257 kcal/mol
   Total Entropy:                89.794  cal/mol.K

 ======================================================================

 STANDARD THERMODYNAMIC QUANTITIES FOR ANHARMONIC VIBRATION -- TOSH

   Zero point vibrational energy: ************ kcal/mol

   Vibrational Enthalpy:       Infinity kcal/mol
   Vibrational Entropy:        Infinity  cal/mol.K

   Total Enthalpy:             Infinity kcal/mol
   Total Entropy:              Infinity  cal/mol.K

 ======================================================================

 STANDARD THERMODYNAMIC QUANTITIES FOR ANHARMONIC VIBRATION -- VPT2

   Zero point vibrational energy: ************ kcal/mol

   Vibrational Enthalpy:       Infinity kcal/mol
   Vibrational Entropy:        Infinity  cal/mol.K

   Total Enthalpy:             Infinity kcal/mol
   Total Entropy:              Infinity  cal/mol.K

 ======================================================================

Archival summary:
1\1\Tims-MBP.fritz.box\FREQ\ProcedureUnspecified\BasisUnspecified\15136(2-,1)\FriFeb1216:25:552021FriFeb1216:25:552021\0\\#,FREQ,ProcedureUnspecified,BasisUnspecified,\\-2,1\P\O,1,1.50302\O,1,1.56991,2,113.868\O,1,1.57286,2,113.436,3,-123.038,0\C,1,1.88998,2,101.665,3,118.489,0\H,5,1.09651,1,105.47,2,57.0765,0\H,5,1.09661,1,105.367,2,-58.2663,0\N,5,1.48718,1,116.88,2,179.504,0\H,8,1.06035,5,107.523,1,-54.3721,0\H,8,1.06692,5,107.287,1,52.4234,0\C,8,1.50552,5,125.494,1,178.49,0\H,11,1.09391,8,109.372,5,-60.5314,0\H,11,1.09403,8,109.509,5,61.4406,0\C,11,1.56606,8,106.334,5,-179.51,0\O,14,1.27435,11,117.275,8,-86.805,0\O,14,1.27672,11,117.165,8,88.8305,0\\\@

 Total job time:  90.30s(wall), 937.20s(cpu) 
 Fri Feb 12 16:25:55 2021

        *************************************************************
        *                                                           *
        *  Thank you very much for using Q-Chem.  Have a nice day.  *
        *                                                           *
        *************************************************************


