                  Welcome to Q-Chem
     A Quantum Leap Into The Future Of Chemistry


 Q-Chem 5.4 (devel), Q-Chem, Inc., Pleasanton, CA (2021)

 E. Epifanovsky,  A. T. B. Gilbert,  Xintian Feng,  Joonho Lee,  Yuezhi Mao,  
 N. Mardirossian,  P. Pokhilko,  A. White,  M. Wormit,  M. P. Coons,  
 A. L. Dempwolff,  Zhengting Gan,  D. Hait,  P. R. Horn,  L. D. Jacobson,  
 I. Kaliman,  J. Kussmann,  A. W. Lange,  Ka Un Lao,  D. S. Levine,  Jie Liu,  
 S. C. McKenzie,  A. F. Morrison,  K. Nanda,  F. Plasser,  D. R. Rehn,  
 M. L. Vidal,  Zhi-Qiang You,  Ying Zhu,  B. Alam,  B. Albrecht,  
 A. Aldossary,  E. Alguire,  J. H. Andersen,  D. Barton,  K. Begam,  A. Behn,  
 Y. A. Bernard,  E. J. Berquist,  H. Burton,  A. Carreras,  K. Carter-Fenk,  
 R. Chakraborty,  A. D. Chien,  K. D. Closser,  V. Cofer-Shabica,  
 S. Dasgupta,  Jia Deng,  M. de Wergifosse,  M. Diedenhofen,  Hainam Do,  
 S. Ehlert,  Po-Tung Fang,  S. Fatehi,  Qingguo Feng,  J. Gayvert,  
 Qinghui Ge,  G. Gidofalvi,  M. Goldey,  J. Gomes,  C. Gonzalez-Espinoza,  
 S. Gulania,  A. Gunina,  M. W. D. Hanson-Heine,  P. H. P. Harbach,  
 A. W. Hauser,  M. F. Herbst,  M. Hernandez Vera,  M. Hodecker,  
 Z. C. Holden,  S. Houck,  Xunkun Huang,  Kerwin Hui,  B. C. Huynh,  
 M. Ivanov,  Hyunjun Ji,  Hanjie Jiang,  B. Kaduk,  S. Kaehler,  
 K. Khistyaev,  Jaehoon Kim,  P. Klunzinger,  Z. Koczor-Benda,  
 Joong Hoon Koh,  D. Kosenkov,  L. Koulias,  T. Kowalczyk,  C. M. Krauter,  
 K. Kue,  A. Kunitsa,  T. Kus,  A. Landau,  K. V. Lawler,  D. Lefrancois,  
 S. Lehtola,  Rain Li,  Yi-Pei Li,  Jiashu Liang,  M. Liebenthal,  
 Hung-Hsuan Lin,  You-Sheng Lin,  Fenglai Liu,  Kuan-Yu Liu,  
 M. Loipersberger,  A. Luenser,  A. Manjanath,  P. Manohar,  E. Mansoor,  
 S. F. Manzer,  Shan-Ping Mao,  A. V. Marenich,  T. Markovich,  S. Mason,  
 S. A. Maurer,  P. F. McLaughlin,  M. F. S. J. Menger,  J.-M. Mewes,  
 S. A. Mewes,  P. Morgante,  J. W. Mullinax,  T. S. Nguyen-Beck,  
 K. J. Oosterbaan,  G. Paran,  Alexander C. Paul,  Suranjan K. Paul,  
 F. Pavosevic,  Zheng Pei,  S. Prager,  E. I. Proynov,  E. Ramos,  B. Rana,  
 A. E. Rask,  A. Rettig,  R. M. Richard,  F. Rob,  E. Rossomme,  T. Scheele,  
 M. Scheurer,  M. Schneider,  N. Sergueev,  S. M. Sharada,  W. Skomorowski,  
 D. W. Small,  C. J. Stein,  Yu-Chuan Su,  E. J. Sundstrom,  Zhen Tao,  
 J. Thirman,  T. Tsuchimochi,  N. M. Tubman,  S. P. Veccham,  O. Vydrov,  
 J. Wenzel,  J. Witte,  A. Yamada,  Kun Yao,  S. Yeganeh,  S. R. Yost,  
 A. Zech,  Igor Ying Zhang,  Xing Zhang,  Yu Zhang,  D. Zuev,  
 A. Aspuru-Guzik,  A. T. Bell,  N. A. Besley,  K. B. Bravaya,  B. R. Brooks,  
 D. Casanova,  Jeng-Da Chai,  S. Coriani,  C. J. Cramer,  
 A. E. DePrince, III,  R. A. DiStasio Jr.,  A. Dreuw,  B. D. Dunietz,  
 T. R. Furlani,  W. A. Goddard III,  S. Grimme,  S. Hammes-Schiffer,  
 T. Head-Gordon,  W. J. Hehre,  Chao-Ping Hsu,  T.-C. Jagau,  Yousung Jung,  
 A. Klamt,  Jing Kong,  D. S. Lambrecht,  WanZhen Liang,  N. J. Mayhall,  
 C. W. McCurdy,  J. B. Neaton,  C. Ochsenfeld,  J. A. Parkhill,  R. Peverati,  
 V. A. Rassolov,  Yihan Shao,  L. V. Slipchenko,  T. Stauch,  R. P. Steele,  
 J. E. Subotnik,  A. J. W. Thom,  A. Tkatchenko,  D. G. Truhlar,  
 T. Van Voorhis,  T. A. Wesolowski,  K. B. Whaley,  H. L. Woodcock III,  
 P. M. Zimmerman,  S. Faraji,  P. M. W. Gill,  M. Head-Gordon,  
 J. M. Herbert,  A. I. Krylov

 Contributors to earlier versions of Q-Chem not listed above: 
 R. D. Adamson,  B. Austin,  R. Baer,  J. Baker,  G. J. O. Beran,  
 K. Brandhorst,  S. T. Brown,  E. F. C. Byrd,  A. K. Chakraborty,  
 G. K. L. Chan,  Chun-Min Chang,  Yunqing Chen,  C.-L. Cheng,  
 Siu Hung Chien,  D. M. Chipman,  D. L. Crittenden,  H. Dachsel,  
 R. J. Doerksen,  A. D. Dutoi,  R. G. Edgar,  J. Fosso-Tande,  
 L. Fusti-Molnar,  D. Ghosh,  A. Ghysels,  A. Golubeva-Zadorozhnaya,  
 J. Gonthier,  M. S. Gordon,  S. R. Gwaltney,  G. Hawkins,  J. E. Herr,  
 A. Heyden,  S. Hirata,  E. G. Hohenstein,  G. Kedziora,  F. J. Keil,  
 C. Kelley,  Jihan Kim,  R. A. King,  R. Z. Khaliullin,  P. P. Korambath,  
 W. Kurlancheek,  A. Laurent,  A. M. Lee,  M. S. Lee,  S. V. Levchenko,  
 Ching Yeh Lin,  D. Liotard,  E. Livshits,  R. C. Lochan,  I. Lotan,  
 L. A. Martinez-Martinez,  P. E. Maslen,  N. Nair,  D. P. O'Neill,  
 D. Neuhauser,  E. Neuscamman,  C. M. Oana,  R. Olivares-Amaya,  R. Olson,  
 T. M. Perrine,  B. Peters,  P. A. Pieniazek,  A. Prociuk,  Y. M. Rhee,  
 J. Ritchie,  M. A. Rohrdanz,  E. Rosta,  N. J. Russ,  H. F. Schaefer III,  
 M. W. Schmidt,  N. E. Schultz,  S. Sharma,  N. Shenvi,  C. D. Sherrill,  
 A. C. Simmonett,  A. Sodt,  T. Stein,  D. Stuck,  K. S. Thanthiriwatte,  
 V. Vanovschi,  L. Vogt,  Tao Wang,  A. Warshel,  M. A. Watson,  
 C. F. Williams,  Q. Wu,  X. Xu,  Jun Yang,  W. Zhang,  Yan Zhao

 Please cite Q-Chem as follows:
 Y. Shao et al., Mol. Phys. 113, 184-215 (2015)
 DOI: 10.1080/00268976.2014.952696

 Q-Chem 5.4.0 for Intel X86 EM64T Linux

 Parts of Q-Chem use Armadillo 9.800.1 (Horizon Scraper).
 http://arma.sourceforge.net/

 Q-Chem begins on Mon Jul 19 09:19:37 2021  

 Host: 
0

     Scratch files written to /home/sanna/qcscratch/qchem4086727//
 Processing $rem in /home/zellerf/qchem/trunk/qc540rc1//config/preferences:
 Processing $rem in /home/sanna/.qchemrc:

 Checking the input file for inconsistencies... 	...done.

--------------------------------------------------------------
User input:
--------------------------------------------------------------
$molecule
-2 1
  O   19.3973640    8.2778510    3.1488240
  O   19.4120450    8.3058140    5.6866680
  O   21.3938140    9.3157660    4.4051830
  O   19.4934920    2.6917290    5.4659630
  O   19.4050830    2.5982240    3.2032890
  H   21.9695240    6.7123490    3.5205180
  H   21.9552500    6.6865620    5.3051010
  H   21.8465650    3.8160470    4.9907780
  H   21.5707170    3.9486340    3.2157330
  H   19.9182760    5.3822580    5.2341050
  H   19.8066790    5.4919470    3.6119550
  C   21.1100920    4.0127200    4.2067440
  C   21.3269940    6.6572140    4.4076560
  C   19.9148060    2.9978500    4.3097920
  N   20.5395030    5.3947110    4.3814040
  P   20.3218500    8.2593900    4.4120470
$end

$rem
   BASIS  =  cc-pVDZ
   JOB_TYPE  = sp
   METHOD  =  PBE
   SYM_IGNORE = True
$end
--------------------------------------------------------------
 ----------------------------------------------------------------
             Standard Nuclear Orientation (Angstroms)
    I     Atom           X                Y                Z
 ----------------------------------------------------------------
    1      O      19.3973640000     8.2778510000     3.1488240000
    2      O      19.4120450000     8.3058140000     5.6866680000
    3      O      21.3938140000     9.3157660000     4.4051830000
    4      O      19.4934920000     2.6917290000     5.4659630000
    5      O      19.4050830000     2.5982240000     3.2032890000
    6      H      21.9695240000     6.7123490000     3.5205180000
    7      H      21.9552500000     6.6865620000     5.3051010000
    8      H      21.8465650000     3.8160470000     4.9907780000
    9      H      21.5707170000     3.9486340000     3.2157330000
   10      H      19.9182760000     5.3822580000     5.2341050000
   11      H      19.8066790000     5.4919470000     3.6119550000
   12      C      21.1100920000     4.0127200000     4.2067440000
   13      C      21.3269940000     6.6572140000     4.4076560000
   14      C      19.9148060000     2.9978500000     4.3097920000
   15      N      20.5395030000     5.3947110000     4.3814040000
   16      P      20.3218500000     8.2593900000     4.4120470000
 ----------------------------------------------------------------
 Nuclear Repulsion Energy =         627.57609220 hartrees
 There are       44 alpha and       44 beta electrons
 Requested basis set is cc-pVDZ
 There are 80 shells and 174 basis functions

 Total QAlloc Memory Limit   2000 MB
 Mega-Array Size       188 MB
 MEM_STATIC part       192 MB
 A cutoff of  1.0D-08 yielded   2438 shell pairs
 There are     11304 function pairs (     12563 Cartesian)
 Smallest overlap matrix eigenvalue = 4.60E-03

 Scale SEOQF with 1.000000e-03/1.000000e-02/1.000000e-02

 Standard Electronic Orientation quadrupole field applied
 Nucleus-field energy     =     0.0000000211 hartrees
 Guess from superposition of atomic densities
 Warning:  Energy on first SCF cycle will be non-variational
 SAD guess density has 86.000000 electrons

 -----------------------------------------------------------------------
  General SCF calculation program by
  Eric Jon Sundstrom, Paul Horn, Yuezhi Mao, Dmitri Zuev, Alec White,
  David Stuck, Shaama M.S., Shane Yost, Joonho Lee, David Small,
  Daniel Levine, Susi Lehtola, Hugh Burton, Evgeny Epifanovsky,
  Bang C. Huynh
 -----------------------------------------------------------------------
 Exchange:  PBE      Correlation:  PBE
 Using SG-1 standard quadrature grid
 using 12 threads for integral computing
 -------------------------------------------------------
 OpenMP Integral computing Module                
 Release: version 1.0, May 2013, Q-Chem Inc. Pittsburgh 
 -------------------------------------------------------
 A restricted SCF calculation will be
 performed using DIIS
 SCF converges when DIIS error is below 1.0e-05
 ---------------------------------------
  Cycle       Energy         DIIS error
 ---------------------------------------
    1    -890.8746386118      5.52e-02  
    2    -888.8201908580      1.36e-02  
    3    -871.0493518975      5.53e-02  
    4    -888.9323168048      1.12e-02  
    5    -889.3533508873      4.17e-03  
    6    -889.3952006543      1.89e-03  
    7    -889.4058890096      7.02e-04  
    8    -889.4068423778      5.13e-04  
    9    -889.4075860004      1.61e-04  
   10    -889.4076621196      5.80e-05  
   11    -889.4076710798      2.72e-05  
   12    -889.4076731185      7.13e-06  Convergence criterion met
 ---------------------------------------
 SCF time:   CPU 71.58s  wall 7.00s 
 SCF   energy in the final basis set =     -889.4076731185
 Total energy in the final basis set =     -889.4076731185

 --------------------------------------------------------------

                    Orbital Energies (a.u.)
 --------------------------------------------------------------

 Alpha MOs
 -- Occupied --
-76.0354 -18.4399 -18.4360 -18.3324 -18.3263 -18.3223 -13.8582  -9.7125
 -9.7010  -9.6525  -6.0048  -4.2243  -4.2221  -4.2219  -0.6671  -0.6439
 -0.5715  -0.5252  -0.4480  -0.4288  -0.4214  -0.3550  -0.2609  -0.2310
 -0.1948  -0.1598  -0.1381  -0.1008  -0.0924  -0.0892  -0.0672  -0.0642
  0.0023   0.0448   0.0494   0.0618   0.0693   0.0924   0.1243   0.1298
  0.1355   0.1496   0.1641   0.1978
 -- Virtual --
  0.2462   0.2737   0.2905   0.2911   0.3186   0.3344   0.3576   0.3723
  0.4020   0.4141   0.4648   0.4937   0.5201   0.5333   0.5406   0.5551
  0.6207   0.6296   0.6615   0.6834   0.7443   0.7469   0.7551   0.7666
  0.7777   0.7855   0.7912   0.8068   0.8253   0.8267   0.8573   0.8640
  0.8673   0.8812   0.9004   0.9377   0.9459   0.9714   1.0433   1.0478
  1.0907   1.0958   1.1034   1.1141   1.1415   1.1948   1.2200   1.2405
  1.2753   1.2927   1.3011   1.3124   1.3349   1.3442   1.3574   1.3617
  1.3823   1.3868   1.3992   1.4277   1.4331   1.4416   1.4708   1.5136
  1.5238   1.5513   1.5618   1.6247   1.7182   1.7229   1.7682   1.7945
  1.8201   1.8255   1.8359   1.8471   1.8953   1.9039   1.9265   1.9673
  1.9915   2.0419   2.0724   2.0911   2.1072   2.1107   2.1879   2.1996
  2.2215   2.2618   2.2939   2.3306   2.3714   2.3762   2.4078   2.4410
  2.5276   2.5471   2.6046   2.6150   2.6769   2.7073   2.8240   2.8257
  2.8557   2.8690   2.8817   2.9181   2.9188   2.9305   2.9365   2.9395
  2.9438   2.9582   2.9723   3.0306   3.0676   3.1249   3.1441   3.1849
  3.2981   3.3013   3.3205   3.3652   3.4214   3.5238   3.5451   3.5732
  3.5841   3.6750
 --------------------------------------------------------------

          Ground-State Mulliken Net Atomic Charges

     Atom                 Charge (a.u.)
  ----------------------------------------
      1 O                    -0.629650
      2 O                    -0.634878
      3 O                    -0.598217
      4 O                    -0.385598
      5 O                    -0.400921
      6 H                    -0.001282
      7 H                    -0.001964
      8 H                    -0.012492
      9 H                    -0.007471
     10 H                     0.102003
     11 H                     0.102155
     12 C                     0.093432
     13 C                    -0.132184
     14 C                    -0.033994
     15 N                     0.036932
     16 P                     0.504130
  ----------------------------------------
  Sum of atomic charges =    -2.000000

 -----------------------------------------------------------------
                    Cartesian Multipole Moments
 -----------------------------------------------------------------
    Charge (ESU x 10^10)
                -9.6064
    Dipole Moment (Debye)
         X    -189.3682      Y     -65.0773      Z     -42.1357
       Tot     204.6235
    Quadrupole Moments (Debye-Ang)
        XX   -3809.8550     XY   -1299.3862     YY    -604.7599
        XZ    -830.9873     YZ    -287.3142     ZZ    -269.0245
    Octopole Moments (Debye-Ang^2)
       XXX  -78269.0607    XXY  -26438.5932    XYY  -12180.7888
       YYY   -5951.3581    XXZ  -16724.2038    XYZ   -5737.4038
       YYZ   -2671.1091    XZZ   -5339.1102    YZZ   -1782.2601
       ZZZ   -1914.3043
    Hexadecapole Moments (Debye-Ang^3)
      XXXX ************   XXXY -548199.5998   XXYY -249030.6497
      XYYY -120532.2913   YYYY  -59477.7051   XXXZ -343651.2188
      XXYZ -116737.5311   XYYZ  -53796.8800   YYYZ  -26287.4776
      XXZZ -107545.9184   XYZZ  -35687.7950   YYZZ  -15531.5342
      XZZZ  -38185.4924   YZZZ  -12367.9028   ZZZZ  -13520.5244
 -----------------------------------------------------------------
 Total job time:  6.48s(wall), 72.11s(cpu) 
 Mon Jul 19 09:19:44 2021

        *************************************************************
        *                                                           *
        *  Thank you very much for using Q-Chem.  Have a nice day.  *
        *                                                           *
        *************************************************************


