                  Welcome to Q-Chem
     A Quantum Leap Into The Future Of Chemistry


 Q-Chem 5.2 (devel), Q-Chem, Inc., Pleasanton, CA (2019)

 Yihan Shao,  Zhengting Gan,  E. Epifanovsky,  A. T. B. Gilbert,  M. Wormit,  
 J. Kussmann,  A. W. Lange,  A. Behn,  Jia Deng,  Xintian Feng,  D. Ghosh,  
 M. Goldey,  P. R. Horn,  L. D. Jacobson,  I. Kaliman,  T. Kus,  A. Landau,  
 Jie Liu,  E. I. Proynov,  R. M. Richard,  R. P. Steele,  E. J. Sundstrom,  
 H. L. Woodcock III,  P. M. Zimmerman,  D. Zuev,  B. Albrecht,  E. Alguire,  
 S. A. Baeppler,  D. Barton,  Z. Benda,  Y. A. Bernard,  E. J. Berquist,  
 K. B. Bravaya,  H. Burton,  D. Casanova,  Chun-Min Chang,  Yunqing Chen,  
 A. Chien,  K. D. Closser,  M. P. Coons,  S. Coriani,  S. Dasgupta,  
 A. L. Dempwolff,  M. Diedenhofen,  Hainam Do,  R. G. Edgar,  Po-Tung Fang,  
 S. Faraji,  S. Fatehi,  Qingguo Feng,  K. D. Fenk,  J. Fosso-Tande,  
 J. Gayvert,  Qinghui Ge,  A. Ghysels,  G. Gidofalvi,  J. Gomes,  
 J. Gonthier,  A. Gunina,  D. Hait,  M. W. D. Hanson-Heine,  
 P. H. P. Harbach,  A. W. Hauser,  M. F. Herbst,  J. E. Herr,  
 E. G. Hohenstein,  Z. C. Holden,  Kerwin Hui,  B. C. Huynh,  T.-C. Jagau,  
 Hyunjun Ji,  B. Kaduk,  K. Khistyaev,  Jaehoon Kim,  P. Klunzinger,  K. Koh,  
 D. Kosenkov,  L. Koulias,  T. Kowalczyk,  C. M. Krauter,  A. Kunitsa,  
 Ka Un Lao,  A. Laurent,  K. V. Lawler,  Joonho Lee,  D. Lefrancois,  
 S. Lehtola,  D. S. Levine,  Yi-Pei Li,  You-Sheng Lin,  Fenglai Liu,  
 E. Livshits,  A. Luenser,  P. Manohar,  E. Mansoor,  S. F. Manzer,  
 Shan-Ping Mao,  Yuezhi Mao,  N. Mardirossian,  A. V. Marenich,  
 T. Markovich,  L. A. Martinez-Martinez,  S. A. Maurer,  N. J. Mayhall,  
 S. C. McKenzie,  J.-M. Mewes,  P. Morgante,  A. F. Morrison,  
 J. W. Mullinax,  K. Nanda,  T. S. Nguyen-Beck,  R. Olivares-Amaya,  
 J. A. Parkhill,  Zheng Pei,  T. M. Perrine,  F. Plasser,  P. Pokhilko,  
 S. Prager,  A. Prociuk,  E. Ramos,  D. R. Rehn,  F. Rob,  M. Scheurer,  
 M. Schneider,  N. Sergueev,  S. M. Sharada,  S. Sharma,  D. W. Small,  
 T. Stauch,  T. Stein,  Yu-Chuan Su,  A. J. W. Thom,  A. Tkatchenko,  
 T. Tsuchimochi,  N. M. Tubman,  L. Vogt,  M. L. Vidal,  O. Vydrov,  
 M. A. Watson,  J. Wenzel,  M. de Wergifosse,  T. A. Wesolowski,  A. White,  
 J. Witte,  A. Yamada,  Jun Yang,  K. Yao,  S. Yeganeh,  S. R. Yost,  
 Zhi-Qiang You,  A. Zech,  Igor Ying Zhang,  Xing Zhang,  Yan Zhao,  
 Ying Zhu,  B. R. Brooks,  G. K. L. Chan,  C. J. Cramer,  M. S. Gordon,  
 W. J. Hehre,  A. Klamt,  M. W. Schmidt,  C. D. Sherrill,  D. G. Truhlar,  
 A. Aspuru-Guzik,  R. Baer,  A. T. Bell,  N. A. Besley,  Jeng-Da Chai,  
 A. E. DePrince, III,  R. A. DiStasio Jr.,  A. Dreuw,  B. D. Dunietz,  
 T. R. Furlani,  Chao-Ping Hsu,  Yousung Jung,  Jing Kong,  D. S. Lambrecht,  
 WanZhen Liang,  C. Ochsenfeld,  V. A. Rassolov,  L. V. Slipchenko,  
 J. E. Subotnik,  T. Van Voorhis,  J. M. Herbert,  A. I. Krylov,  
 P. M. W. Gill,  M. Head-Gordon

 Contributors to earlier versions of Q-Chem not listed above: 
 R. D. Adamson,  B. Austin,  J. Baker,  G. J. O. Beran,  K. Brandhorst,  
 S. T. Brown,  E. F. C. Byrd,  A. K. Chakraborty,  C.-L. Cheng,  
 Siu Hung Chien,  D. M. Chipman,  D. L. Crittenden,  H. Dachsel,  
 R. J. Doerksen,  A. D. Dutoi,  L. Fusti-Molnar,  W. A. Goddard III,  
 A. Golubeva-Zadorozhnaya,  S. R. Gwaltney,  G. Hawkins,  A. Heyden,  
 S. Hirata,  G. Kedziora,  F. J. Keil,  C. Kelley,  Jihan Kim,  R. A. King,  
 R. Z. Khaliullin,  P. P. Korambath,  W. Kurlancheek,  A. M. Lee,  M. S. Lee,  
 S. V. Levchenko,  Ching Yeh Lin,  D. Liotard,  R. C. Lochan,  I. Lotan,  
 P. E. Maslen,  N. Nair,  D. P. O'Neill,  D. Neuhauser,  E. Neuscamman,  
 C. M. Oana,  R. Olson,  B. Peters,  R. Peverati,  P. A. Pieniazek,  
 Y. M. Rhee,  J. Ritchie,  M. A. Rohrdanz,  E. Rosta,  N. J. Russ,  
 H. F. Schaefer III,  N. E. Schultz,  N. Shenvi,  A. C. Simmonett,  A. Sodt,  
 D. Stuck,  K. S. Thanthiriwatte,  V. Vanovschi,  Tao Wang,  A. Warshel,  
 C. F. Williams,  Q. Wu,  X. Xu,  W. Zhang

 Please cite Q-Chem as follows:
 Y. Shao et al., Mol. Phys. 113, 184-215 (2015)
 DOI: 10.1080/00268976.2014.952696

 Q-Chem 5.2.1 for Mac (Intel) OS X

 Parts of Q-Chem use Armadillo 8.300.2 (Tropical Shenanigans).
 http://arma.sourceforge.net/

 Q-Chem begins on Wed Feb  3 17:34:13 2021  

Host: Tims-MBP.fritz.box
0

     Scratch files written to /Users/tim/qchem/scratch/qchem63053//
NAlpha2: 88
NElect   88
Mult     1

Checking the input file for inconsistencies... 	...done.

--------------------------------------------------------------
User input:
--------------------------------------------------------------
$molecule
-2 1
O       19.41799684       8.77249819       3.15257656
O       19.43086489       8.77266989       5.68292238
O       21.45915125       9.71201801       4.41124395
O       19.41507821       3.10979154       5.52744298
O       19.38434670       3.11617926       3.26074864
H       21.94873102       7.11342822       3.50141814
H       21.97091763       7.11502872       5.28775314
H       21.72915763       4.25998731       5.25892925
H       21.68251028       4.29139331       3.45553640
H       19.87355542       5.85877097       5.24103255
H       19.83025408       5.87616120       3.61212352
C       21.10490600       4.42225952       4.37525555
C       21.32512314       7.07350158       4.40256749
C       19.88223011       3.44379107       4.38982212
N       20.53341044       5.81460743       4.41218631
P       20.35308040       8.69432984       4.41120287
$end

$rem
jobtype	opt
method	pbe
basis	cc-pvdz
geom_opt_print	7
sym_ignore	true
geom_opt_tol_gradient	10000000
geom_opt_tol_energy	10000000
geom_opt_tol_displacement	10000000
$end
--------------------------------------------------------------
 ----------------------------------------------------------------
             Standard Nuclear Orientation (Angstroms)
    I     Atom           X                Y                Z
 ----------------------------------------------------------------
    1      O      19.4179968400     8.7724981900     3.1525765600
    2      O      19.4308648900     8.7726698900     5.6829223800
    3      O      21.4591512500     9.7120180100     4.4112439500
    4      O      19.4150782100     3.1097915400     5.5274429800
    5      O      19.3843467000     3.1161792600     3.2607486400
    6      H      21.9487310200     7.1134282200     3.5014181400
    7      H      21.9709176300     7.1150287200     5.2877531400
    8      H      21.7291576300     4.2599873100     5.2589292500
    9      H      21.6825102800     4.2913933100     3.4555364000
   10      H      19.8735554200     5.8587709700     5.2410325500
   11      H      19.8302540800     5.8761612000     3.6121235200
   12      C      21.1049060000     4.4222595200     4.3752555500
   13      C      21.3251231400     7.0735015800     4.4025674900
   14      C      19.8822301100     3.4437910700     4.3898221200
   15      N      20.5334104400     5.8146074300     4.4121863100
   16      P      20.3530804000     8.6943298400     4.4112028700
 ----------------------------------------------------------------
 Nuclear Repulsion Energy =         627.26924628 hartrees
 There are       44 alpha and       44 beta electrons
 Requested basis set is cc-pVDZ
 There are 80 shells and 174 basis functions

 Total QAlloc Memory Limit   2000 MB
 Mega-Array Size       188 MB
 MEM_STATIC part       192 MB
 A cutoff of  1.0D-11 yielded   2640 shell pairs
 There are     12294 function pairs (     13657 Cartesian)
 Smallest overlap matrix eigenvalue = 4.56E-03

 Scale SEOQF with 1.000000e-03/1.000000e-02/1.000000e-02

 Standard Electronic Orientation quadrupole field applied
 Nucleus-field energy     =     0.0000000243 hartrees
 Guess from superposition of atomic densities
 Warning:  Energy on first SCF cycle will be non-variational
 SAD guess density has 86.000000 electrons

 -----------------------------------------------------------------------
  General SCF calculation program by
  Eric Jon Sundstrom, Paul Horn, Yuezhi Mao, Dmitri Zuev, Alec White,
  David Stuck, Shaama M.S., Shane Yost, Joonho Lee, David Small,
  Daniel Levine, Susi Lehtola, Hugh Burton, Evgeny Epifanovsky,
  Bang C. Huynh
 -----------------------------------------------------------------------
 Exchange:  PBE      Correlation:  PBE
 Using SG-1 standard quadrature grid
 using 12 threads for integral computing
 -------------------------------------------------------
 OpenMP Integral computing Module                
 Release: version 1.0, May 2013, Q-Chem Inc. Pittsburgh 
 -------------------------------------------------------
 A restricted SCF calculation will be
 performed using DIIS
 SCF converges when DIIS error is below 1.0e-08
 ---------------------------------------
  Cycle       Energy         DIIS error
 ---------------------------------------
    1    -890.8681300257      5.51e-02  
    2    -888.8133365388      1.37e-02  
    3    -870.6069276964      5.56e-02  
    4    -888.9247364636      1.12e-02  
    5    -889.3491675827      4.19e-03  
    6    -889.3919639774      1.84e-03  
    7    -889.4025171938      6.23e-04  
    8    -889.4036603638      3.22e-04  
    9    -889.4039363000      1.29e-04  
   10    -889.4039793068      6.11e-05  
   11    -889.4039893959      2.55e-05  
   12    -889.4039913099      7.49e-06  
   13    -889.4039914720      2.12e-06  
   14    -889.4039914848      9.24e-07  
   15    -889.4039914869      4.16e-07  
   16    -889.4039914875      3.91e-08  
   17    -889.4039914875      1.57e-08  
   18    -889.4039914875      4.16e-09  Convergence criterion met
 ---------------------------------------
 SCF time:   CPU 124.78s  wall 12.00s 
 SCF   energy in the final basis set =     -889.4039914875
 Total energy in the final basis set =     -889.4039914875

 --------------------------------------------------------------

                    Orbital Energies (a.u.)
 --------------------------------------------------------------

 Alpha MOs
 -- Occupied --
-76.0353 -18.4388 -18.4382 -18.3325 -18.3235 -18.3224 -13.8599  -9.7129
 -9.7021  -9.6533  -6.0046  -4.2241  -4.2219  -4.2217  -0.6682  -0.6442
 -0.5723  -0.5243  -0.4468  -0.4255  -0.4231  -0.3557  -0.2612  -0.2326
 -0.1967  -0.1607  -0.1399  -0.1015  -0.0926  -0.0899  -0.0672  -0.0653
  0.0032   0.0457   0.0505   0.0611   0.0689   0.0917   0.1244   0.1309
  0.1367   0.1511   0.1665   0.1999
 -- Virtual --
  0.2457   0.2718   0.2880   0.2891   0.3203   0.3305   0.3583   0.3731
  0.3991   0.4127   0.4623   0.4907   0.5230   0.5331   0.5419   0.5529
  0.6180   0.6281   0.6602   0.6825   0.7450   0.7466   0.7544   0.7671
  0.7770   0.7880   0.7899   0.8060   0.8246   0.8261   0.8578   0.8643
  0.8658   0.8805   0.9009   0.9366   0.9460   0.9707   1.0433   1.0481
  1.0907   1.0929   1.1045   1.1144   1.1437   1.1916   1.2195   1.2420
  1.2768   1.2908   1.2973   1.3118   1.3312   1.3463   1.3561   1.3605
  1.3833   1.3888   1.4013   1.4248   1.4368   1.4431   1.4720   1.5162
  1.5243   1.5537   1.5600   1.6296   1.7164   1.7173   1.7685   1.8066
  1.8124   1.8218   1.8303   1.8600   1.8806   1.8974   1.9258   1.9655
  1.9849   2.0447   2.0747   2.0885   2.1051   2.1070   2.1897   2.1990
  2.2243   2.2650   2.2942   2.3312   2.3712   2.3738   2.4150   2.4366
  2.5296   2.5387   2.6068   2.6157   2.6741   2.7083   2.8236   2.8262
  2.8556   2.8686   2.8840   2.9181   2.9190   2.9319   2.9394   2.9407
  2.9452   2.9580   2.9745   3.0273   3.0633   3.1294   3.1441   3.1796
  3.2940   3.2979   3.3201   3.3681   3.4177   3.5238   3.5420   3.5735
  3.5839   3.6746
 --------------------------------------------------------------

          Ground-State Mulliken Net Atomic Charges

     Atom                 Charge (a.u.)
  ----------------------------------------
      1 O                    -0.632275
      2 O                    -0.634903
      3 O                    -0.596237
      4 O                    -0.392299
      5 O                    -0.394442
      6 H                     0.000432
      7 H                    -0.000004
      8 H                    -0.010859
      9 H                    -0.009808
     10 H                     0.102311
     11 H                     0.105562
     12 C                     0.099760
     13 C                    -0.133158
     14 C                    -0.037387
     15 N                     0.033235
     16 P                     0.500073
  ----------------------------------------
  Sum of atomic charges =    -2.000000

 -----------------------------------------------------------------
                    Cartesian Multipole Moments
 -----------------------------------------------------------------
    Charge (ESU x 10^10)
                -9.6064
    Dipole Moment (Debye)
         X    -189.3877      Y     -69.6087      Z     -42.3521
       Tot     206.1718
    Quadrupole Moments (Debye-Ang)
        XX   -3811.3188     XY   -1389.9587     YY    -667.1176
        XZ    -835.1117     YZ    -307.2581     ZZ    -270.8990
    Octopole Moments (Debye-Ang^2)
       XXX  -78335.0125    XXY  -28287.8689    XYY  -13438.1023
       YYY   -6817.3192    XXZ  -16808.5665    XYZ   -6135.9504
       YYZ   -2945.4588    XZZ   -5374.4640    YZZ   -1907.5195
       ZZZ   -1935.3816
    Hexadecapole Moments (Debye-Ang^3)
      XXXX ************   XXXY -586777.4023   XXYY -274870.8705
      XYYY -138081.6699   YYYY  -70907.9654   XXXZ -345505.1902
      XXYZ -124883.0754   XYYZ  -59334.0296   YYYZ  -30100.3634
      XXZZ -108250.6117   XYZZ  -38200.2471   YYZZ  -17212.3367
      XZZZ  -38593.4328   YZZZ  -13276.7904   ZZZZ  -13744.9442
 -----------------------------------------------------------------
 Calculating analytic gradient of the SCF energy
 Gradient of SCF Energy
            1           2           3           4           5           6
    1  -0.0079991  -0.0091401  -0.0644766  -0.0158404  -0.0166439  -0.0040978
    2   0.0267420   0.0271289  -0.0282738  -0.0097707  -0.0101568   0.0052743
    3   0.0212306  -0.0191736   0.0007804  -0.0004973  -0.0014171   0.0073005
            7           8           9          10          11          12
    1  -0.0043224  -0.0052283  -0.0047851  -0.0070425  -0.0096355   0.0120024
    2   0.0052511  -0.0033394  -0.0034975  -0.0045654  -0.0048581   0.0030621
    3  -0.0072400  -0.0076117   0.0076029   0.0050906  -0.0073567  -0.0005214
           13          14          15          16
    1  -0.0093445   0.0308170   0.0273899   0.0883469
    2  -0.0010716   0.0217550   0.0014846  -0.0251645
    3   0.0001763   0.0020209   0.0027422  -0.0031267
 Max gradient component =       8.835E-02
 RMS gradient           =       2.022E-02
 Gradient time:  CPU 10.90 s  wall 1.25 s
 Geometry Optimization Parameters
   NAtoms,    NIC,     NZ,  NCons,   NDum,   NFix, NCnnct, MaxDiis
       16     107       0       0       0       0       0       0

 Rotation Matrix is:


     1.000000    0.000000    0.000000
     0.000000    1.000000    0.000000
     0.000000    0.000000    1.000000


** GEOMETRY OPTIMIZATION IN DELOCALIZED INTERNAL COORDINATES **
   Searching for a Minimum

   Optimization Cycle:   1

                       Coordinates (Angstroms)
     ATOM                X               Y               Z
      1  O        19.4179968400    8.7724981900    3.1525765600
      2  O        19.4308648900    8.7726698900    5.6829223800
      3  O        21.4591512500    9.7120180100    4.4112439500
      4  O        19.4150782100    3.1097915400    5.5274429800
      5  O        19.3843467000    3.1161792600    3.2607486400
      6  H        21.9487310200    7.1134282200    3.5014181400
      7  H        21.9709176300    7.1150287200    5.2877531400
      8  H        21.7291576300    4.2599873100    5.2589292500
      9  H        21.6825102800    4.2913933100    3.4555364000
     10  H        19.8735554200    5.8587709700    5.2410325500
     11  H        19.8302540800    5.8761612000    3.6121235200
     12  C        21.1049060000    4.4222595200    4.3752555500
     13  C        21.3251231400    7.0735015800    4.4025674900
     14  C        19.8822301100    3.4437910700    4.3898221200
     15  N        20.5334104400    5.8146074300    4.4121863100
     16  P        20.3530804000    8.6943298400    4.4112028700
   Point Group: c1    Number of degrees of freedom:    42


   Energy is   -889.403991487


                       Cartesian Gradient (au)
     ATOM              X           Y           Z
    1  O          -0.007999    0.026742    0.021231
    2  O          -0.009140    0.027129   -0.019174
    3  O          -0.064477   -0.028274    0.000780
    4  O          -0.015840   -0.009771   -0.000497
    5  O          -0.016644   -0.010157   -0.001417
    6  H          -0.004098    0.005274    0.007300
    7  H          -0.004322    0.005251   -0.007240
    8  H          -0.005228   -0.003339   -0.007612
    9  H          -0.004785   -0.003498    0.007603
   10  H          -0.007043   -0.004565    0.005091
   11  H          -0.009636   -0.004858   -0.007357
   12  C           0.012002    0.003062   -0.000521
   13  C          -0.009345   -0.001072    0.000176
   14  C           0.030817    0.021755    0.002021
   15  N           0.027390    0.001485    0.002742
   16  P           0.088347   -0.025164   -0.003127

 Attempting to generate delocalized internal coordinates
 Generating Primitive Internal Coordinates
 Primitive Stretches:
        12    8
        12    9
        13    6
        13    7
        14    4
        14    5
        14   12
        15   10
        15   11
        15   12
        15   13
        16    1
        16    2
        16    3
        16   13
 There are     15 Stretches
 Primitive Bends:
         8   12    9
         6   13    7
         4   14    5
         4   14   12
         5   14   12
        14   12    8
        14   12    9
        10   15   11
        15   12    8
        15   12    9
        10   15   12
        11   15   12
        15   13    6
        15   13    7
        10   15   13
        11   15   13
        12   15   13
        14   12   15
         1   16    2
         1   16    3
         2   16    3
         1   16   13
         2   16   13
         3   16   13
        16   13    6
        16   13    7
        15   13   16
 There are     27 Bends
 Primitive Torsions:
         4   14   12    8
         4   14   12    9
         4   14   12   15
         5   14   12    8
         5   14   12    9
         5   14   12   15
        10   15   12    8
        10   15   12    9
        10   15   12   14
        11   15   12    8
        11   15   12    9
        11   15   12   14
        13   15   12    8
        13   15   12    9
        13   15   12   14
        10   15   13    6
        10   15   13    7
        10   15   13   16
        11   15   13    6
        11   15   13    7
        11   15   13   16
        12   15   13    6
        12   15   13    7
        12   15   13   16
         1   16   13    6
         1   16   13    7
         1   16   13   15
         2   16   13    6
         2   16   13    7
         2   16   13   15
         3   16   13    6
         3   16   13    7
         3   16   13   15
 There are     33 Torsions
 There are     75 Primitive Internals
  CALCULATING B-MATRIX COLUMN:           1
  CALCULATING B-MATRIX COLUMN:           2
  CALCULATING B-MATRIX COLUMN:           3
  CALCULATING B-MATRIX COLUMN:           4
  CALCULATING B-MATRIX COLUMN:           5
  CALCULATING B-MATRIX COLUMN:           6
  CALCULATING B-MATRIX COLUMN:           7
  CALCULATING B-MATRIX COLUMN:           8
  CALCULATING B-MATRIX COLUMN:           9
  CALCULATING B-MATRIX COLUMN:          10
  CALCULATING B-MATRIX COLUMN:          11
  CALCULATING B-MATRIX COLUMN:          12
  CALCULATING B-MATRIX COLUMN:          13
  CALCULATING B-MATRIX COLUMN:          14
  CALCULATING B-MATRIX COLUMN:          15
  CALCULATING B-MATRIX COLUMN:          16
  CALCULATING B-MATRIX COLUMN:          17
  CALCULATING B-MATRIX COLUMN:          18
  CALCULATING B-MATRIX COLUMN:          19
  CALCULATING B-MATRIX COLUMN:          20
  CALCULATING B-MATRIX COLUMN:          21
  CALCULATING B-MATRIX COLUMN:          22
  CALCULATING B-MATRIX COLUMN:          23
  CALCULATING B-MATRIX COLUMN:          24
  CALCULATING B-MATRIX COLUMN:          25
  CALCULATING B-MATRIX COLUMN:          26
  CALCULATING B-MATRIX COLUMN:          27
  CALCULATING B-MATRIX COLUMN:          28
  CALCULATING B-MATRIX COLUMN:          29
  CALCULATING B-MATRIX COLUMN:          30
  CALCULATING B-MATRIX COLUMN:          31
  CALCULATING B-MATRIX COLUMN:          32
  CALCULATING B-MATRIX COLUMN:          33
  CALCULATING B-MATRIX COLUMN:          34
  CALCULATING B-MATRIX COLUMN:          35
  CALCULATING B-MATRIX COLUMN:          36
  CALCULATING B-MATRIX COLUMN:          37
  CALCULATING B-MATRIX COLUMN:          38
  CALCULATING B-MATRIX COLUMN:          39
  CALCULATING B-MATRIX COLUMN:          40
  CALCULATING B-MATRIX COLUMN:          41
  CALCULATING B-MATRIX COLUMN:          42
  CALCULATING B-MATRIX COLUMN:          43
  CALCULATING B-MATRIX COLUMN:          44
  CALCULATING B-MATRIX COLUMN:          45
  CALCULATING B-MATRIX COLUMN:          46
  CALCULATING B-MATRIX COLUMN:          47
  CALCULATING B-MATRIX COLUMN:          48
  CALCULATING B-MATRIX COLUMN:          49
  CALCULATING B-MATRIX COLUMN:          50
  CALCULATING B-MATRIX COLUMN:          51
  CALCULATING B-MATRIX COLUMN:          52
  CALCULATING B-MATRIX COLUMN:          53
  CALCULATING B-MATRIX COLUMN:          54
  CALCULATING B-MATRIX COLUMN:          55
  CALCULATING B-MATRIX COLUMN:          56
  CALCULATING B-MATRIX COLUMN:          57
  CALCULATING B-MATRIX COLUMN:          58
  CALCULATING B-MATRIX COLUMN:          59
  CALCULATING B-MATRIX COLUMN:          60
  CALCULATING B-MATRIX COLUMN:          61
  CALCULATING B-MATRIX COLUMN:          62
  CALCULATING B-MATRIX COLUMN:          63
  CALCULATING B-MATRIX COLUMN:          64
  CALCULATING B-MATRIX COLUMN:          65
  CALCULATING B-MATRIX COLUMN:          66
  CALCULATING B-MATRIX COLUMN:          67
  CALCULATING B-MATRIX COLUMN:          68
  CALCULATING B-MATRIX COLUMN:          69
  CALCULATING B-MATRIX COLUMN:          70
  CALCULATING B-MATRIX COLUMN:          71
  CALCULATING B-MATRIX COLUMN:          72
  CALCULATING B-MATRIX COLUMN:          73
  CALCULATING B-MATRIX COLUMN:          74
  CALCULATING B-MATRIX COLUMN:          75

      B-Matrix



     0.000000    0.000000    0.000000    0.000000    0.000000    0.000000
     0.000000    0.000000    0.000000    0.000000    0.000000    0.000000
     0.000000    0.000000    0.000000    0.000000    0.000000    0.000000
     0.000000    0.000000    0.000000    0.000000    0.000000    0.000000
     0.000000    0.000000    0.000000    0.000000    0.000000    0.000000
     0.000000    0.000000    0.000000    0.000000    0.000000    0.000000
     0.000000    0.000000    0.000000    0.000000    0.000000    0.000000
     0.000000    0.000000    0.000000    0.000000    0.000000    0.000000
     0.000000    0.000000    0.000000    0.000000    0.000000    0.000000
     0.000000    0.000000    0.000000    0.000000   -0.366581    0.000000
     0.000000    0.000000    0.000000    0.000000   -0.262094    0.000000
     0.000000    0.000000    0.000000    0.000000    0.892707    0.000000
     0.000000    0.000000    0.000000    0.000000    0.000000   -0.389969
     0.000000    0.000000    0.000000    0.000000    0.000000   -0.256603
     0.000000    0.000000    0.000000    0.000000    0.000000   -0.884352
     0.000000    0.000000    0.568669    0.000000    0.000000    0.000000
     0.000000    0.000000    0.036409    0.000000    0.000000    0.000000
     0.000000    0.000000   -0.821760    0.000000    0.000000    0.000000
     0.000000    0.000000    0.000000    0.588956    0.000000    0.000000
     0.000000    0.000000    0.000000    0.037872    0.000000    0.000000
     0.000000    0.000000    0.000000    0.807277    0.000000    0.000000
     0.570598    0.000000    0.000000    0.000000    0.000000    0.000000
    -0.148325    0.000000    0.000000    0.000000    0.000000    0.000000
     0.807723    0.000000    0.000000    0.000000    0.000000    0.000000
     0.000000    0.528019    0.000000    0.000000    0.000000    0.000000
     0.000000   -0.119632    0.000000    0.000000    0.000000    0.000000
     0.000000   -0.840764    0.000000    0.000000    0.000000    0.000000
     0.000000    0.000000    0.000000    0.000000    0.000000    0.000000
     0.000000    0.000000    0.000000    0.000000    0.000000    0.000000
     0.000000    0.000000    0.000000    0.000000    0.000000    0.000000
     0.000000    0.000000    0.000000    0.000000    0.000000    0.000000
     0.000000    0.000000    0.000000    0.000000    0.000000    0.000000
     0.000000    0.000000    0.000000    0.000000    0.000000    0.000000
    -0.570598   -0.528019    0.000000    0.000000    0.000000    0.000000
     0.148325    0.119632    0.000000    0.000000    0.000000    0.000000
    -0.807723    0.840764    0.000000    0.000000    0.000000    0.000000
     0.000000    0.000000   -0.568669   -0.588956    0.000000    0.000000
     0.000000    0.000000   -0.036409   -0.037872    0.000000    0.000000
     0.000000    0.000000    0.821760   -0.807277    0.000000    0.000000
     0.000000    0.000000    0.000000    0.000000    0.366581    0.389969
     0.000000    0.000000    0.000000    0.000000    0.262094    0.256603
     0.000000    0.000000    0.000000    0.000000   -0.892707    0.884352
     0.000000    0.000000    0.000000    0.000000    0.000000    0.000000
     0.000000    0.000000    0.000000    0.000000    0.000000    0.000000
     0.000000    0.000000    0.000000    0.000000    0.000000    0.000000
     0.000000    0.000000    0.000000    0.000000    0.000000    0.000000
     0.000000    0.000000    0.000000    0.000000    0.000000    0.000000
     0.000000    0.000000    0.000000    0.000000    0.000000    0.000000


     0.000000    0.000000    0.000000    0.000000    0.000000   -0.595627
     0.000000    0.000000    0.000000    0.000000    0.000000    0.049791
     0.000000    0.000000    0.000000    0.000000    0.000000   -0.801716
     0.000000    0.000000    0.000000    0.000000    0.000000    0.000000
     0.000000    0.000000    0.000000    0.000000    0.000000    0.000000
     0.000000    0.000000    0.000000    0.000000    0.000000    0.000000
     0.000000    0.000000    0.000000    0.000000    0.000000    0.000000
     0.000000    0.000000    0.000000    0.000000    0.000000    0.000000
     0.000000    0.000000    0.000000    0.000000    0.000000    0.000000
     0.000000    0.000000    0.000000    0.000000    0.000000    0.000000
     0.000000    0.000000    0.000000    0.000000    0.000000    0.000000
     0.000000    0.000000    0.000000    0.000000    0.000000    0.000000
     0.000000    0.000000    0.000000    0.000000    0.000000    0.000000
     0.000000    0.000000    0.000000    0.000000    0.000000    0.000000
     0.000000    0.000000    0.000000    0.000000    0.000000    0.000000
     0.000000    0.000000    0.000000    0.000000    0.000000    0.000000
     0.000000    0.000000    0.000000    0.000000    0.000000    0.000000
     0.000000    0.000000    0.000000    0.000000    0.000000    0.000000
     0.000000    0.000000    0.000000    0.000000    0.000000    0.000000
     0.000000    0.000000    0.000000    0.000000    0.000000    0.000000
     0.000000    0.000000    0.000000    0.000000    0.000000    0.000000
     0.000000    0.000000    0.000000    0.000000    0.000000    0.000000
     0.000000    0.000000    0.000000    0.000000    0.000000    0.000000
     0.000000    0.000000    0.000000    0.000000    0.000000    0.000000
     0.000000    0.000000    0.000000    0.000000    0.000000    0.000000
     0.000000    0.000000    0.000000    0.000000    0.000000    0.000000
     0.000000    0.000000    0.000000    0.000000    0.000000    0.000000
     0.000000   -0.622298    0.000000    0.000000    0.000000    0.000000
     0.000000    0.041650    0.000000    0.000000    0.000000    0.000000
     0.000000    0.781671    0.000000    0.000000    0.000000    0.000000
     0.000000    0.000000   -0.659053    0.000000    0.000000    0.000000
     0.000000    0.000000    0.057693    0.000000    0.000000    0.000000
     0.000000    0.000000   -0.749881    0.000000    0.000000    0.000000
     0.780733    0.000000    0.000000    0.379599    0.000000    0.000000
     0.624796    0.000000    0.000000   -0.924826    0.000000    0.000000
    -0.009301    0.000000    0.000000   -0.024530    0.000000    0.000000
     0.000000    0.000000    0.000000    0.000000    0.532357    0.000000
     0.000000    0.000000    0.000000    0.000000    0.846495    0.000000
     0.000000    0.000000    0.000000    0.000000   -0.006468    0.000000
    -0.780733    0.000000    0.000000    0.000000    0.000000    0.000000
    -0.624796    0.000000    0.000000    0.000000    0.000000    0.000000
     0.009301    0.000000    0.000000    0.000000    0.000000    0.000000
     0.000000    0.622298    0.659053   -0.379599   -0.532357    0.000000
     0.000000   -0.041650   -0.057693    0.924826   -0.846495    0.000000
     0.000000   -0.781671    0.749881    0.024530    0.006468    0.000000
     0.000000    0.000000    0.000000    0.000000    0.000000    0.595627
     0.000000    0.000000    0.000000    0.000000    0.000000   -0.049791
     0.000000    0.000000    0.000000    0.000000    0.000000    0.801716


     0.000000    0.000000    0.000000    0.000000    0.000000    0.000000
     0.000000    0.000000    0.000000    0.000000    0.000000    0.000000
     0.000000    0.000000    0.000000    0.000000    0.000000    0.000000
    -0.586330    0.000000    0.000000    0.000000    0.000000    0.000000
     0.049807    0.000000    0.000000    0.000000    0.000000    0.000000
     0.808539    0.000000    0.000000    0.000000    0.000000    0.000000
     0.000000    0.735897    0.000000    0.000000    0.000000    0.000000
     0.000000    0.677094    0.000000    0.000000    0.000000    0.000000
     0.000000    0.000027    0.000000    0.000000    0.000000    0.000000
     0.000000    0.000000    0.000000    0.000000    0.000000    0.306832
     0.000000    0.000000    0.000000    0.000000    0.000000    0.208060
     0.000000    0.000000    0.000000    0.000000    0.000000    0.187083
     0.000000    0.000000    0.000000    0.000000    0.000000    0.301258
     0.000000    0.000000    0.000000    0.000000    0.000000    0.208848
     0.000000    0.000000    0.000000    0.000000    0.000000   -0.193444
     0.000000    0.000000    0.000000    0.000000   -0.395731    0.000000
     0.000000    0.000000    0.000000    0.000000   -0.025421    0.000000
     0.000000    0.000000    0.000000    0.000000   -0.274978    0.000000
     0.000000    0.000000    0.000000    0.000000   -0.388796    0.000000
     0.000000    0.000000    0.000000    0.000000   -0.024920    0.000000
     0.000000    0.000000    0.000000    0.000000    0.284819    0.000000
     0.000000    0.000000    0.000000   -0.380287    0.000000    0.000000
     0.000000    0.000000    0.000000    0.089716    0.000000    0.000000
     0.000000    0.000000    0.000000    0.285120    0.000000    0.000000
     0.000000    0.000000    0.000000   -0.394458    0.000000    0.000000
     0.000000    0.000000    0.000000    0.099247    0.000000    0.000000
     0.000000    0.000000    0.000000   -0.261851    0.000000    0.000000
     0.000000    0.000000    0.000000    0.000000    0.000000    0.000000
     0.000000    0.000000    0.000000    0.000000    0.000000    0.000000
     0.000000    0.000000    0.000000    0.000000    0.000000    0.000000
     0.000000    0.000000    0.000000    0.000000    0.000000    0.000000
     0.000000    0.000000    0.000000    0.000000    0.000000    0.000000
     0.000000    0.000000    0.000000    0.000000    0.000000    0.000000
     0.000000    0.000000    0.000000    0.774746    0.000000    0.000000
     0.000000    0.000000    0.000000   -0.188964    0.000000    0.000000
     0.000000    0.000000    0.000000   -0.023270    0.000000    0.000000
     0.000000    0.000000    0.514314    0.000000    0.784527    0.000000
     0.000000    0.000000   -0.857590    0.000000    0.050341    0.000000
     0.000000    0.000000   -0.004569    0.000000   -0.009841    0.000000
     0.000000    0.000000    0.000000    0.000000    0.000000   -0.608090
     0.000000    0.000000    0.000000    0.000000    0.000000   -0.416908
     0.000000    0.000000    0.000000    0.000000    0.000000    0.006361
     0.000000    0.000000    0.000000    0.000000    0.000000    0.000000
     0.000000    0.000000    0.000000    0.000000    0.000000    0.000000
     0.000000    0.000000    0.000000    0.000000    0.000000    0.000000
     0.586330   -0.735897   -0.514314    0.000000    0.000000    0.000000
    -0.049807   -0.677094    0.857590    0.000000    0.000000    0.000000
    -0.808539   -0.000027    0.004569    0.000000    0.000000    0.000000


     0.000000    0.000000    0.000000    0.000000    0.000000    0.000000
     0.000000    0.000000    0.000000    0.000000    0.000000    0.000000
     0.000000    0.000000    0.000000    0.000000    0.000000    0.000000
     0.000000    0.000000    0.000000    0.000000    0.000000    0.000000
     0.000000    0.000000    0.000000    0.000000    0.000000    0.000000
     0.000000    0.000000    0.000000    0.000000    0.000000    0.000000
     0.000000    0.000000    0.000000    0.000000    0.000000    0.000000
     0.000000    0.000000    0.000000    0.000000    0.000000    0.000000
     0.000000    0.000000    0.000000    0.000000    0.000000    0.000000
    -0.286272    0.000000    0.000000    0.000000    0.000000    0.000000
    -0.235789    0.000000    0.000000    0.000000    0.000000    0.000000
    -0.186781    0.000000    0.000000    0.000000    0.000000    0.000000
     0.000000   -0.280774    0.000000    0.000000    0.000000    0.000000
     0.000000   -0.236494    0.000000    0.000000    0.000000    0.000000
     0.000000    0.192433    0.000000    0.000000    0.000000    0.000000
     0.000000    0.000000    0.000000    0.000000    0.000000    0.000000
     0.000000    0.000000    0.000000    0.000000    0.000000    0.000000
     0.000000    0.000000    0.000000    0.000000    0.000000    0.000000
     0.000000    0.000000    0.000000    0.000000    0.000000    0.000000
     0.000000    0.000000    0.000000    0.000000    0.000000    0.000000
     0.000000    0.000000    0.000000    0.000000    0.000000    0.000000
     0.000000    0.000000    0.300840    0.000000    0.000000    0.097008
     0.000000    0.000000    0.348414    0.000000    0.000000   -0.449162
     0.000000    0.000000   -0.148541    0.000000    0.000000   -0.151011
     0.000000    0.000000    0.000000    0.308449    0.000000    0.000000
     0.000000    0.000000    0.000000    0.343349    0.000000    0.000000
     0.000000    0.000000    0.000000    0.144858    0.000000    0.000000
     0.000000    0.000000    0.000000    0.000000    0.388733    0.000000
     0.000000    0.000000    0.000000    0.000000   -0.032901    0.000000
     0.000000    0.000000    0.000000    0.000000    0.311229    0.000000
     0.000000    0.000000    0.000000    0.000000    0.371043    0.000000
     0.000000    0.000000    0.000000    0.000000   -0.026021    0.000000
     0.000000    0.000000    0.000000    0.000000   -0.328103    0.000000
     0.003346    0.012730   -0.192461   -0.215405    0.000000    0.068495
    -0.009210   -0.010883   -0.479496   -0.464104    0.000000    0.509023
    -0.337761    0.337488    0.440517   -0.446420    0.000000    0.455265
     0.000000    0.000000    0.000000    0.000000    0.000000    0.000000
     0.000000    0.000000    0.000000    0.000000    0.000000    0.000000
     0.000000    0.000000    0.000000    0.000000    0.000000    0.000000
     0.282925    0.268044   -0.108379   -0.093044    0.000000    0.000000
     0.244998    0.247377    0.131082    0.120755    0.000000    0.000000
     0.524542   -0.529921   -0.291976    0.301562    0.000000    0.000000
     0.000000    0.000000    0.000000    0.000000   -0.759777   -0.165503
     0.000000    0.000000    0.000000    0.000000    0.058922   -0.059861
     0.000000    0.000000    0.000000    0.000000    0.016875   -0.304254
     0.000000    0.000000    0.000000    0.000000    0.000000    0.000000
     0.000000    0.000000    0.000000    0.000000    0.000000    0.000000
     0.000000    0.000000    0.000000    0.000000    0.000000    0.000000


     0.000000    0.000000    0.000000    0.000000    0.000000    0.000000
     0.000000    0.000000    0.000000    0.000000    0.000000    0.000000
     0.000000    0.000000    0.000000    0.000000    0.000000    0.000000
     0.000000    0.000000    0.000000    0.000000    0.000000    0.000000
     0.000000    0.000000    0.000000    0.000000    0.000000    0.000000
     0.000000    0.000000    0.000000    0.000000    0.000000    0.000000
     0.000000    0.000000    0.000000    0.000000    0.000000    0.000000
     0.000000    0.000000    0.000000    0.000000    0.000000    0.000000
     0.000000    0.000000    0.000000    0.000000    0.000000    0.000000
     0.000000    0.000000    0.000000    0.000000    0.000000    0.000000
     0.000000    0.000000    0.000000    0.000000    0.000000    0.000000
     0.000000    0.000000    0.000000    0.000000    0.000000    0.000000
     0.000000    0.000000    0.000000    0.000000    0.000000    0.000000
     0.000000    0.000000    0.000000    0.000000    0.000000    0.000000
     0.000000    0.000000    0.000000    0.000000    0.000000    0.000000
     0.000000    0.000000    0.000000    0.174209    0.000000    0.000000
     0.000000    0.000000    0.000000    0.427843    0.000000    0.000000
     0.000000    0.000000    0.000000    0.139511    0.000000    0.000000
     0.000000    0.000000    0.000000    0.000000    0.170343    0.000000
     0.000000    0.000000    0.000000    0.000000    0.427846    0.000000
     0.000000    0.000000    0.000000    0.000000   -0.144347    0.000000
     0.000000    0.000000    0.000000    0.000000    0.000000    0.000000
     0.000000    0.000000    0.000000    0.000000    0.000000    0.000000
     0.000000    0.000000    0.000000    0.000000    0.000000    0.000000
     0.104841    0.000000    0.000000    0.000000    0.000000    0.000000
    -0.453884    0.000000    0.000000    0.000000    0.000000    0.000000
     0.130425    0.000000    0.000000    0.000000    0.000000    0.000000
     0.000000   -0.102698    0.000000    0.000000    0.000000   -0.180549
     0.000000    0.476478    0.000000    0.000000    0.000000   -0.449570
     0.000000   -0.107148    0.000000    0.000000    0.000000   -0.119783
     0.000000    0.000000   -0.099188    0.000000    0.000000    0.000000
     0.000000    0.000000    0.470055    0.000000    0.000000    0.000000
     0.000000    0.000000    0.123338    0.000000    0.000000    0.000000
     0.044977    0.187811    0.201991    0.000000    0.000000    0.000000
     0.523606    0.084642    0.075546    0.000000    0.000000    0.000000
    -0.440649   -0.284795    0.277557    0.000000    0.000000    0.000000
     0.000000    0.000000    0.000000   -0.027365   -0.016040    0.172396
     0.000000    0.000000    0.000000   -0.522561   -0.522546   -0.110642
     0.000000    0.000000    0.000000   -0.449474    0.450670   -0.290946
     0.000000    0.000000    0.000000    0.000000    0.000000    0.000000
     0.000000    0.000000    0.000000    0.000000    0.000000    0.000000
     0.000000    0.000000    0.000000    0.000000    0.000000    0.000000
    -0.149818   -0.085113   -0.102804   -0.146844   -0.154303    0.008154
    -0.069722   -0.561120   -0.545601    0.094718    0.094700    0.560212
     0.310224    0.391942   -0.400894    0.309962   -0.306323    0.410729
     0.000000    0.000000    0.000000    0.000000    0.000000    0.000000
     0.000000    0.000000    0.000000    0.000000    0.000000    0.000000
     0.000000    0.000000    0.000000    0.000000    0.000000    0.000000


     0.000000    0.000000    0.000000    0.269275   -0.182414    0.000000
     0.000000    0.000000    0.000000   -0.022790   -0.257000    0.000000
     0.000000    0.000000    0.000000   -0.201471    0.119561    0.000000
     0.000000    0.000000    0.000000    0.271075    0.000000   -0.184335
     0.000000    0.000000    0.000000   -0.022743    0.000000   -0.255551
     0.000000    0.000000    0.000000    0.197977    0.000000   -0.117932
     0.000000    0.000000    0.000000    0.000000    0.114677    0.112679
     0.000000    0.000000    0.000000    0.000000   -0.124649   -0.122453
     0.000000    0.000000    0.000000    0.000000    0.308656   -0.310267
     0.000000    0.000000    0.000000    0.000000    0.000000    0.000000
     0.000000    0.000000    0.000000    0.000000    0.000000    0.000000
     0.000000    0.000000    0.000000    0.000000    0.000000    0.000000
     0.000000    0.000000    0.000000    0.000000    0.000000    0.000000
     0.000000    0.000000    0.000000    0.000000    0.000000    0.000000
     0.000000    0.000000    0.000000    0.000000    0.000000    0.000000
     0.000000    0.000000    0.000000    0.000000    0.000000    0.000000
     0.000000    0.000000    0.000000    0.000000    0.000000    0.000000
     0.000000    0.000000    0.000000    0.000000    0.000000    0.000000
     0.000000    0.000000    0.000000    0.000000    0.000000    0.000000
     0.000000    0.000000    0.000000    0.000000    0.000000    0.000000
     0.000000    0.000000    0.000000    0.000000    0.000000    0.000000
     0.000000    0.000000    0.000000    0.000000    0.000000    0.000000
     0.000000    0.000000    0.000000    0.000000    0.000000    0.000000
     0.000000    0.000000    0.000000    0.000000    0.000000    0.000000
     0.000000    0.000000    0.000000    0.000000    0.000000    0.000000
     0.000000    0.000000    0.000000    0.000000    0.000000    0.000000
     0.000000    0.000000    0.000000    0.000000    0.000000    0.000000
     0.000000    0.000000    0.000000    0.000000    0.000000    0.000000
     0.000000    0.000000    0.000000    0.000000    0.000000    0.000000
     0.000000    0.000000    0.000000    0.000000    0.000000    0.000000
    -0.174801    0.000000    0.000000    0.000000    0.000000    0.000000
    -0.448619    0.000000    0.000000    0.000000    0.000000    0.000000
     0.119113    0.000000    0.000000    0.000000    0.000000    0.000000
     0.000000   -0.324977   -0.536039    0.000000    0.000000    0.000000
     0.000000   -0.133625    0.130192    0.000000    0.000000    0.000000
     0.000000    0.008941    0.015492    0.000000    0.000000    0.000000
     0.186648   -0.300986    0.000000    0.000000    0.000000    0.000000
    -0.115242    0.189383    0.000000    0.000000    0.000000    0.000000
     0.280166    0.012362    0.000000    0.000000    0.000000    0.000000
     0.000000    0.000000    0.210976    0.000000    0.000000    0.000000
     0.000000    0.000000   -0.263774    0.000000    0.000000    0.000000
     0.000000    0.000000   -0.009559    0.000000    0.000000    0.000000
    -0.011848    0.625963    0.325064    0.000000    0.000000    0.000000
     0.563860   -0.055758    0.133581    0.000000    0.000000    0.000000
    -0.399279   -0.021303   -0.005934    0.000000    0.000000    0.000000
     0.000000    0.000000    0.000000   -0.540350    0.067737    0.071656
     0.000000    0.000000    0.000000    0.045533    0.381649    0.378003
     0.000000    0.000000    0.000000    0.003494   -0.428218    0.428199


    -0.110841    0.000000    0.000000    0.000000    0.000000    0.000000
     0.301849    0.000000    0.000000    0.000000    0.000000    0.000000
     0.101095    0.000000    0.000000    0.000000    0.000000    0.000000
     0.000000   -0.111354    0.000000    0.000000    0.000000    0.000000
     0.000000    0.301543    0.000000    0.000000    0.000000    0.000000
     0.000000   -0.099326    0.000000    0.000000    0.000000    0.000000
     0.000000    0.000000   -0.238385    0.000000    0.000000    0.000000
     0.000000    0.000000    0.259088    0.000000    0.000000    0.000000
     0.000000    0.000000    0.001641    0.000000    0.000000    0.000000
     0.000000    0.000000    0.000000    0.000000    0.000000    0.000000
     0.000000    0.000000    0.000000    0.000000    0.000000    0.000000
     0.000000    0.000000    0.000000    0.000000    0.000000    0.000000
     0.000000    0.000000    0.000000    0.000000    0.000000    0.000000
     0.000000    0.000000    0.000000    0.000000    0.000000    0.000000
     0.000000    0.000000    0.000000    0.000000    0.000000    0.000000
     0.000000    0.000000    0.000000    0.181971    0.000000    0.000000
     0.000000    0.000000    0.000000   -0.434010    0.000000    0.000000
     0.000000    0.000000    0.000000    0.106697    0.000000    0.000000
     0.000000    0.000000    0.000000    0.000000    0.178874    0.000000
     0.000000    0.000000    0.000000    0.000000   -0.434493    0.000000
     0.000000    0.000000    0.000000    0.000000   -0.110115    0.000000
     0.000000    0.000000    0.000000    0.000000    0.000000    0.000000
     0.000000    0.000000    0.000000    0.000000    0.000000    0.000000
     0.000000    0.000000    0.000000    0.000000    0.000000    0.000000
     0.000000    0.000000    0.000000    0.000000    0.000000    0.000000
     0.000000    0.000000    0.000000    0.000000    0.000000    0.000000
     0.000000    0.000000    0.000000    0.000000    0.000000    0.000000
     0.000000    0.000000    0.000000    0.000000    0.000000    0.000000
     0.000000    0.000000    0.000000    0.000000    0.000000    0.000000
     0.000000    0.000000    0.000000    0.000000    0.000000    0.000000
     0.000000    0.000000    0.000000    0.000000    0.000000    0.000000
     0.000000    0.000000    0.000000    0.000000    0.000000    0.000000
     0.000000    0.000000    0.000000    0.000000    0.000000    0.000000
     0.000000    0.000000    0.000000    0.000000    0.000000    0.000000
     0.000000    0.000000    0.000000    0.000000    0.000000    0.000000
     0.000000    0.000000    0.000000    0.000000    0.000000    0.000000
     0.124709    0.121662   -0.240119   -0.056421   -0.047628   -0.541292
     0.073514    0.074247   -0.144006    0.510574    0.511952    0.045431
     0.239663   -0.240999    0.000256   -0.344962    0.344997    0.005668
     0.000000    0.000000    0.000000    0.000000    0.000000    0.000000
     0.000000    0.000000    0.000000    0.000000    0.000000    0.000000
     0.000000    0.000000    0.000000    0.000000    0.000000    0.000000
     0.000000    0.000000    0.000000    0.000000    0.000000    0.301190
     0.000000    0.000000    0.000000    0.000000    0.000000   -0.189440
     0.000000    0.000000    0.000000    0.000000    0.000000   -0.002989
    -0.013868   -0.010308    0.478504   -0.125549   -0.131246    0.240103
    -0.375363   -0.375790   -0.115082   -0.076564   -0.077459    0.144009
    -0.340758    0.340325   -0.001897    0.238265   -0.234882   -0.002679


     0.000000    0.000000    0.000000    0.000000    0.000000    0.000000
     0.000000    0.000000    0.000000    0.000000    0.000000    0.000000
     0.000000    0.000000    0.000000    0.000000    0.000000    0.000000
     0.000000    0.000000    0.000000    0.000000    0.000000    0.000000
     0.000000    0.000000    0.000000    0.000000    0.000000    0.000000
     0.000000    0.000000    0.000000    0.000000    0.000000    0.000000
     0.000000    0.000000    0.000000    0.000000    0.000000    0.000000
     0.000000    0.000000    0.000000    0.000000    0.000000    0.000000
     0.000000    0.000000    0.000000    0.000000    0.000000    0.000000
    -0.291898   -0.291898   -0.291898    0.000000    0.000000    0.000000
     0.364559    0.364559    0.364559    0.000000    0.000000    0.000000
    -0.012832   -0.012832   -0.012832    0.000000    0.000000    0.000000
     0.000000    0.000000    0.000000    0.290576    0.290576    0.290576
     0.000000    0.000000    0.000000   -0.363436   -0.363436   -0.363436
     0.000000    0.000000    0.000000   -0.022680   -0.022680   -0.022680
     0.000000    0.000000    0.000000    0.000000    0.000000    0.000000
     0.000000    0.000000    0.000000    0.000000    0.000000    0.000000
     0.000000    0.000000    0.000000    0.000000    0.000000    0.000000
     0.000000    0.000000    0.000000    0.000000    0.000000    0.000000
     0.000000    0.000000    0.000000    0.000000    0.000000    0.000000
     0.000000    0.000000    0.000000    0.000000    0.000000    0.000000
     0.276390    0.000000    0.000000    0.276390    0.000000    0.000000
    -0.349233    0.000000    0.000000   -0.349233    0.000000    0.000000
    -0.259380    0.000000    0.000000   -0.259380    0.000000    0.000000
     0.000000   -0.289132    0.000000    0.000000   -0.289132    0.000000
     0.000000    0.357832    0.000000    0.000000    0.357832    0.000000
     0.000000   -0.232497    0.000000    0.000000   -0.232497    0.000000
     0.000000    0.000000    0.000000    0.000000    0.000000    0.000000
     0.000000    0.000000    0.000000    0.000000    0.000000    0.000000
     0.000000    0.000000    0.000000    0.000000    0.000000    0.000000
     0.000000    0.000000    0.000000    0.000000    0.000000    0.000000
     0.000000    0.000000    0.000000    0.000000    0.000000    0.000000
     0.000000    0.000000    0.000000    0.000000    0.000000    0.000000
    -0.451909    0.250023   -0.120451   -0.234906    0.467027    0.096553
     0.569419   -0.308200    0.143518    0.298201   -0.579418   -0.127700
     0.317163    0.283791   -0.469879    0.313507    0.280135   -0.473535
     0.000000    0.000000    0.000000    0.000000    0.000000    0.000000
     0.000000    0.000000    0.000000    0.000000    0.000000    0.000000
     0.000000    0.000000    0.000000    0.000000    0.000000    0.000000
     0.467418    0.331006    0.403216   -0.332060   -0.468472   -0.396262
    -0.584746   -0.414192   -0.502115    0.414468    0.585022    0.497098
    -0.044951   -0.038463    0.116600   -0.031447   -0.024959    0.130104
     0.000000    0.000000    0.009133    0.000000    0.000000    0.009133
     0.000000    0.000000   -0.005962    0.000000    0.000000   -0.005962
     0.000000    0.000000    0.366111    0.000000    0.000000    0.366111
     0.000000    0.000000    0.000000    0.000000    0.000000    0.000000
     0.000000    0.000000    0.000000    0.000000    0.000000    0.000000
     0.000000    0.000000    0.000000    0.000000    0.000000    0.000000


     0.000000    0.000000    0.000000    0.000000    0.000000    0.000000
     0.000000    0.000000    0.000000    0.000000    0.000000    0.000000
     0.000000    0.000000    0.000000    0.000000    0.000000    0.000000
     0.000000    0.000000    0.000000    0.000000    0.000000    0.000000
     0.000000    0.000000    0.000000    0.000000    0.000000    0.000000
     0.000000    0.000000    0.000000    0.000000    0.000000    0.000000
     0.000000    0.000000    0.000000    0.000000    0.000000    0.000000
     0.000000    0.000000    0.000000    0.000000    0.000000    0.000000
     0.000000    0.000000    0.000000    0.000000    0.000000    0.000000
     0.000000    0.000000    0.000000    0.000000    0.000000    0.000000
     0.000000    0.000000    0.000000    0.000000    0.000000    0.000000
     0.000000    0.000000    0.000000    0.000000    0.000000    0.000000
     0.000000    0.000000    0.000000    0.000000    0.000000    0.000000
     0.000000    0.000000    0.000000    0.000000    0.000000    0.000000
     0.000000    0.000000    0.000000    0.000000    0.000000    0.000000
     0.000000    0.000000    0.000000    0.000000    0.000000    0.000000
     0.000000    0.000000    0.000000    0.000000    0.000000    0.000000
     0.000000    0.000000    0.000000    0.000000    0.000000    0.000000
     0.000000    0.000000    0.000000    0.000000    0.000000    0.000000
     0.000000    0.000000    0.000000    0.000000    0.000000    0.000000
     0.000000    0.000000    0.000000    0.000000    0.000000    0.000000
    -0.408660    0.000000    0.000000   -0.408660    0.000000    0.000000
    -0.174543    0.000000    0.000000   -0.174543    0.000000    0.000000
     0.256636    0.000000    0.000000    0.256636    0.000000    0.000000
     0.000000    0.421050    0.000000    0.000000    0.421050    0.000000
     0.000000    0.166436    0.000000    0.000000    0.166436    0.000000
     0.000000    0.240747    0.000000    0.000000    0.240747    0.000000
     0.394329    0.394329    0.394329    0.000000    0.000000    0.000000
     0.153745    0.153745    0.153745    0.000000    0.000000    0.000000
     0.305739    0.305739    0.305739    0.000000    0.000000    0.000000
     0.000000    0.000000    0.000000   -0.375176   -0.375176   -0.375176
     0.000000    0.000000    0.000000   -0.162407   -0.162407   -0.162407
     0.000000    0.000000    0.000000    0.317238    0.317238    0.317238
     0.589463   -0.440898    0.092978    0.432022   -0.598338   -0.064463
     0.248728   -0.174723    0.024418    0.184084   -0.239366   -0.040226
    -0.255627   -0.235479    0.518212   -0.254814   -0.234666    0.519025
     0.000000    0.000000    0.000000    0.000000    0.000000    0.000000
     0.000000    0.000000    0.000000    0.000000    0.000000    0.000000
     0.000000    0.000000    0.000000    0.000000    0.000000    0.000000
     0.000000    0.000000   -0.008780    0.000000    0.000000   -0.008780
     0.000000    0.000000    0.005732    0.000000    0.000000    0.005732
     0.000000    0.000000   -0.351959    0.000000    0.000000   -0.351959
    -0.575133   -0.374481   -0.478527    0.351813    0.552464    0.448418
    -0.227930   -0.145458   -0.183895    0.152866    0.235337    0.196901
    -0.306748   -0.311006   -0.471992   -0.319061   -0.323319   -0.484304
     0.000000    0.000000    0.000000    0.000000    0.000000    0.000000
     0.000000    0.000000    0.000000    0.000000    0.000000    0.000000
     0.000000    0.000000    0.000000    0.000000    0.000000    0.000000


     0.000000    0.000000    0.000000    0.000000    0.000000    0.000000
     0.000000    0.000000    0.000000    0.000000    0.000000    0.000000
     0.000000    0.000000    0.000000    0.000000    0.000000    0.000000
     0.000000    0.000000    0.000000    0.000000    0.000000    0.000000
     0.000000    0.000000    0.000000    0.000000    0.000000    0.000000
     0.000000    0.000000    0.000000    0.000000    0.000000    0.000000
     0.000000    0.000000    0.000000    0.000000    0.000000    0.000000
     0.000000    0.000000    0.000000    0.000000    0.000000    0.000000
     0.000000    0.000000    0.000000    0.000000    0.000000    0.000000
     0.000000    0.000000    0.000000    0.000000    0.000000    0.000000
     0.000000    0.000000    0.000000    0.000000    0.000000    0.000000
     0.000000    0.000000    0.000000    0.000000    0.000000    0.000000
     0.000000    0.000000    0.000000    0.000000    0.000000    0.000000
     0.000000    0.000000    0.000000    0.000000    0.000000    0.000000
     0.000000    0.000000    0.000000    0.000000    0.000000    0.000000
     0.000000    0.000000    0.000000   -0.379094    0.000000    0.000000
     0.000000    0.000000    0.000000    0.236486    0.000000    0.000000
     0.000000    0.000000    0.000000   -0.251860    0.000000    0.000000
     0.000000    0.000000    0.000000    0.000000    0.373137    0.000000
     0.000000    0.000000    0.000000    0.000000   -0.236659    0.000000
     0.000000    0.000000    0.000000    0.000000   -0.261123    0.000000
    -0.408660    0.000000    0.000000    0.000000    0.000000    0.000000
    -0.174543    0.000000    0.000000    0.000000    0.000000    0.000000
     0.256636    0.000000    0.000000    0.000000    0.000000    0.000000
     0.000000    0.421050    0.000000    0.000000    0.000000    0.000000
     0.000000    0.166436    0.000000    0.000000    0.000000    0.000000
     0.000000    0.240747    0.000000    0.000000    0.000000    0.000000
     0.000000    0.000000    0.000000   -0.363284   -0.363284   -0.363284
     0.000000    0.000000    0.000000    0.226166    0.226166    0.226166
     0.000000    0.000000    0.000000   -0.301266   -0.301266   -0.301266
     0.000000    0.000000    0.000000    0.000000    0.000000    0.000000
     0.000000    0.000000    0.000000    0.000000    0.000000    0.000000
     0.000000    0.000000    0.000000    0.000000    0.000000    0.000000
     0.499599   -0.530762    0.003114    0.000000    0.000000    0.000000
     0.220166   -0.203285   -0.004144    0.000000    0.000000    0.000000
    -0.569422   -0.549274    0.204416    0.000000    0.000000    0.000000
    -0.014357   -0.014357   -0.014357    0.395833   -0.544765   -0.083203
     0.005692    0.005692    0.005692   -0.247026    0.344602    0.048056
    -0.436765   -0.436765   -0.436765    0.250121    0.261980   -0.558912
     0.000000    0.000000   -0.008780    0.000000    0.000000    0.000000
     0.000000    0.000000    0.005732    0.000000    0.000000    0.000000
     0.000000    0.000000   -0.351959    0.000000    0.000000    0.000000
    -0.076582    0.124069    0.020023    0.346545    0.534912    0.443174
    -0.051315    0.031156   -0.007280   -0.215625   -0.334109   -0.274536
     0.749550    0.745292    0.584307    0.303006    0.300408    0.546290
     0.000000    0.000000    0.000000    0.000000    0.000000    0.003313
     0.000000    0.000000    0.000000    0.000000    0.000000    0.000315
     0.000000    0.000000    0.000000    0.000000    0.000000    0.313888


     0.000000    0.000000    0.000000    0.000000    0.000000    0.000000
     0.000000    0.000000    0.000000    0.000000    0.000000    0.000000
     0.000000    0.000000    0.000000    0.000000    0.000000    0.000000
     0.000000    0.000000    0.000000    0.000000    0.000000    0.000000
     0.000000    0.000000    0.000000    0.000000    0.000000    0.000000
     0.000000    0.000000    0.000000    0.000000    0.000000    0.000000
     0.000000    0.000000    0.000000    0.000000    0.000000    0.000000
     0.000000    0.000000    0.000000    0.000000    0.000000    0.000000
     0.000000    0.000000    0.000000    0.000000    0.000000    0.000000
     0.000000    0.000000    0.000000    0.000000    0.000000    0.000000
     0.000000    0.000000    0.000000    0.000000    0.000000    0.000000
     0.000000    0.000000    0.000000    0.000000    0.000000    0.000000
     0.000000    0.000000    0.000000    0.000000    0.000000    0.000000
     0.000000    0.000000    0.000000    0.000000    0.000000    0.000000
     0.000000    0.000000    0.000000    0.000000    0.000000    0.000000
    -0.379094    0.000000    0.000000   -0.379094    0.000000    0.000000
     0.236486    0.000000    0.000000    0.236486    0.000000    0.000000
    -0.251860    0.000000    0.000000   -0.251860    0.000000    0.000000
     0.000000    0.373137    0.000000    0.000000    0.373137    0.000000
     0.000000   -0.236659    0.000000    0.000000   -0.236659    0.000000
     0.000000   -0.261123    0.000000    0.000000   -0.261123    0.000000
     0.000000    0.000000    0.000000    0.000000    0.000000    0.000000
     0.000000    0.000000    0.000000    0.000000    0.000000    0.000000
     0.000000    0.000000    0.000000    0.000000    0.000000    0.000000
     0.000000    0.000000    0.000000    0.000000    0.000000    0.000000
     0.000000    0.000000    0.000000    0.000000    0.000000    0.000000
     0.000000    0.000000    0.000000    0.000000    0.000000    0.000000
     0.000000    0.000000    0.000000    0.000000    0.000000    0.000000
     0.000000    0.000000    0.000000    0.000000    0.000000    0.000000
     0.000000    0.000000    0.000000    0.000000    0.000000    0.000000
     0.345129    0.345129    0.345129    0.000000    0.000000    0.000000
    -0.219497   -0.219497   -0.219497    0.000000    0.000000    0.000000
    -0.320213   -0.320213   -0.320213    0.000000    0.000000    0.000000
     0.000000    0.000000    0.000000    0.014182    0.014182    0.014182
     0.000000    0.000000    0.000000   -0.005623   -0.005623   -0.005623
     0.000000    0.000000    0.000000    0.431444    0.431444    0.431444
     0.547397   -0.393201    0.068361    0.482155   -0.458442    0.003119
    -0.342372    0.249256   -0.047290   -0.298882    0.292746   -0.003800
     0.246528    0.258387   -0.562505    0.568388    0.580248   -0.240645
     0.000000    0.000000    0.000000    0.000000    0.000000    0.000000
     0.000000    0.000000    0.000000    0.000000    0.000000    0.000000
     0.000000    0.000000    0.000000    0.000000    0.000000    0.000000
    -0.513433   -0.325065   -0.416803   -0.117244    0.071124   -0.020614
     0.325383    0.206900    0.266472    0.068019   -0.050464    0.009108
     0.325546    0.322948    0.568830   -0.747971   -0.750569   -0.504687
     0.000000    0.000000    0.003313    0.000000    0.000000    0.003313
     0.000000    0.000000    0.000315    0.000000    0.000000    0.000315
     0.000000    0.000000    0.313888    0.000000    0.000000    0.313888


    -0.263229   -0.263229   -0.263229    0.000000    0.000000    0.000000
    -0.158853   -0.158853   -0.158853    0.000000    0.000000    0.000000
     0.185698    0.185698    0.185698    0.000000    0.000000    0.000000
     0.000000    0.000000    0.000000    0.265339    0.265339    0.265339
     0.000000    0.000000    0.000000    0.158156    0.158156    0.158156
     0.000000    0.000000    0.000000    0.182673    0.182673    0.182673
     0.000000    0.000000    0.000000    0.000000    0.000000    0.000000
     0.000000    0.000000    0.000000    0.000000    0.000000    0.000000
     0.000000    0.000000    0.000000    0.000000    0.000000    0.000000
     0.000000    0.000000    0.000000    0.000000    0.000000    0.000000
     0.000000    0.000000    0.000000    0.000000    0.000000    0.000000
     0.000000    0.000000    0.000000    0.000000    0.000000    0.000000
     0.000000    0.000000    0.000000    0.000000    0.000000    0.000000
     0.000000    0.000000    0.000000    0.000000    0.000000    0.000000
     0.000000    0.000000    0.000000    0.000000    0.000000    0.000000
     0.365847    0.000000    0.000000    0.365847    0.000000    0.000000
     0.218006    0.000000    0.000000    0.218006    0.000000    0.000000
     0.262830    0.000000    0.000000    0.262830    0.000000    0.000000
     0.000000   -0.359615    0.000000    0.000000   -0.359615    0.000000
     0.000000   -0.217120    0.000000    0.000000   -0.217120    0.000000
     0.000000    0.272546    0.000000    0.000000    0.272546    0.000000
     0.000000    0.000000    0.000000    0.000000    0.000000    0.000000
     0.000000    0.000000    0.000000    0.000000    0.000000    0.000000
     0.000000    0.000000    0.000000    0.000000    0.000000    0.000000
     0.000000    0.000000    0.000000    0.000000    0.000000    0.000000
     0.000000    0.000000    0.000000    0.000000    0.000000    0.000000
     0.000000    0.000000    0.000000    0.000000    0.000000    0.000000
     0.000000    0.000000    0.000000    0.000000    0.000000    0.000000
     0.000000    0.000000    0.000000    0.000000    0.000000    0.000000
     0.000000    0.000000    0.000000    0.000000    0.000000    0.000000
     0.000000    0.000000    0.000000    0.000000    0.000000    0.000000
     0.000000    0.000000    0.000000    0.000000    0.000000    0.000000
     0.000000    0.000000    0.000000    0.000000    0.000000    0.000000
     0.000000    0.000000    0.000000    0.000000    0.000000    0.000000
     0.000000    0.000000    0.000000    0.000000    0.000000    0.000000
     0.000000    0.000000    0.000000    0.000000    0.000000    0.000000
    -0.497618    0.339750   -0.069809   -0.345264    0.492104    0.082545
    -0.297099    0.205148   -0.045031   -0.205728    0.296520    0.046341
    -0.249969   -0.261450    0.594092   -0.250345   -0.261825    0.593716
     0.000000    0.000000    0.000000    0.000000    0.000000    0.000000
     0.000000    0.000000    0.000000    0.000000    0.000000    0.000000
     0.000000    0.000000    0.000000    0.000000    0.000000    0.000000
     0.000000    0.000000   -0.004211    0.000000    0.000000   -0.004211
     0.000000    0.000000   -0.000400    0.000000    0.000000   -0.000400
     0.000000    0.000000   -0.398903    0.000000    0.000000   -0.398903
     0.395000    0.283094    0.337248   -0.285922   -0.397828   -0.343673
     0.237947    0.170826    0.204284   -0.170433   -0.237555   -0.204097
    -0.198559   -0.196794   -0.380886   -0.195159   -0.193394   -0.377487


     0.000000    0.000000    0.000000
     0.000000    0.000000    0.000000
     0.000000    0.000000    0.000000
     0.000000    0.000000    0.000000
     0.000000    0.000000    0.000000
     0.000000    0.000000    0.000000
    -0.001127   -0.001127   -0.001127
     0.001239    0.001239    0.001239
    -0.359496   -0.359496   -0.359496
     0.000000    0.000000    0.000000
     0.000000    0.000000    0.000000
     0.000000    0.000000    0.000000
     0.000000    0.000000    0.000000
     0.000000    0.000000    0.000000
     0.000000    0.000000    0.000000
     0.365847    0.000000    0.000000
     0.218006    0.000000    0.000000
     0.262830    0.000000    0.000000
     0.000000   -0.359615    0.000000
     0.000000   -0.217120    0.000000
     0.000000    0.272546    0.000000
     0.000000    0.000000    0.000000
     0.000000    0.000000    0.000000
     0.000000    0.000000    0.000000
     0.000000    0.000000    0.000000
     0.000000    0.000000    0.000000
     0.000000    0.000000    0.000000
     0.000000    0.000000    0.000000
     0.000000    0.000000    0.000000
     0.000000    0.000000    0.000000
     0.000000    0.000000    0.000000
     0.000000    0.000000    0.000000
     0.000000    0.000000    0.000000
     0.000000    0.000000    0.000000
     0.000000    0.000000    0.000000
     0.000000    0.000000    0.000000
    -0.422282    0.415086    0.005527
    -0.251327    0.250920    0.000741
    -0.361048   -0.372528    0.483014
     0.000000    0.000000    0.000000
     0.000000    0.000000    0.000000
     0.000000    0.000000    0.000000
     0.000000    0.000000   -0.004211
     0.000000    0.000000   -0.000400
     0.000000    0.000000   -0.398903
     0.057562   -0.054344   -0.000190
     0.032082   -0.035039   -0.001581
     0.457713    0.459477    0.275385

 Generating Delocalized Internal Coordinates

      B*B(t) Matrix



     2.000000   -0.360074    0.000000    0.000000    0.000000    0.000000
    -0.360074    2.000000    0.000000    0.000000    0.000000    0.000000
     0.000000    0.000000    2.000000   -0.327088    0.000000    0.000000
     0.000000    0.000000   -0.327088    2.000000    0.000000    0.000000
     0.000000    0.000000    0.000000    0.000000    2.000000   -0.579258
     0.000000    0.000000    0.000000    0.000000   -0.579258    2.000000
    -0.345299   -0.345317    0.000000    0.000000   -0.458260   -0.456561
     0.000000    0.000000    0.000000    0.000000    0.000000    0.000000
     0.000000    0.000000    0.000000    0.000000    0.000000    0.000000
    -0.333960   -0.331698    0.000000    0.000000    0.000000    0.000000
     0.000000    0.000000   -0.338870   -0.340372    0.000000    0.000000
     0.000000    0.000000    0.000000    0.000000    0.000000    0.000000
     0.000000    0.000000    0.000000    0.000000    0.000000    0.000000
     0.000000    0.000000    0.000000    0.000000    0.000000    0.000000
     0.000000    0.000000   -0.265005   -0.266741    0.000000    0.000000
    -0.451301   -0.451251    0.000000    0.000000    0.000000    0.000000
     0.000000    0.000000   -0.456056   -0.456014    0.000000    0.000000
     0.000000    0.000000    0.000000    0.000000   -0.337862   -0.338491
     0.269542   -0.286846    0.000000    0.000000   -0.300334    0.637079
    -0.281475    0.275724    0.000000    0.000000    0.636160   -0.300630
    -0.317120    0.414631    0.000000    0.000000    0.255275   -0.266838
     0.414655   -0.317118    0.000000    0.000000   -0.271665    0.261389
     0.000000    0.000000    0.000000    0.000000    0.000000    0.000000
    -0.331310    0.407499    0.000000    0.000000    0.000000    0.000000
     0.407922   -0.331591    0.000000    0.000000    0.000000    0.000000
     0.135425   -0.328487    0.000000    0.000000    0.000000    0.000000
    -0.328239    0.135742    0.000000    0.000000    0.000000    0.000000
     0.000000    0.000000   -0.334772    0.398757    0.000000    0.000000
     0.000000    0.000000    0.398490   -0.334579    0.000000    0.000000
     0.000000    0.000000   -0.333095    0.137531    0.000000    0.000000
     0.000000    0.000000    0.128284   -0.331735    0.000000    0.000000
     0.158389    0.163125    0.174425    0.160116    0.000000    0.000000
     0.312660    0.311639    0.000000    0.000000    0.016739    0.006136
     0.000000    0.000000    0.000000    0.000000    0.000000    0.000000
     0.000000    0.000000    0.000000    0.000000    0.000000    0.000000
     0.000000    0.000000    0.000000    0.000000    0.000000    0.000000
     0.000000    0.000000    0.123351   -0.269707    0.000000    0.000000
     0.000000    0.000000   -0.269932    0.120088    0.000000    0.000000
     0.000000    0.000000    0.142002    0.146666    0.000000    0.000000
     0.000000    0.000000   -0.269980    0.292373    0.000000    0.000000
     0.000000    0.000000    0.291949   -0.269846    0.000000    0.000000
     0.000000    0.000000    0.310820    0.312501    0.000000    0.000000
     0.086138    0.573397    0.000000    0.000000    0.058216   -0.007521
    -0.417602    0.069714    0.000000    0.000000    0.047119   -0.011215
     0.469548   -0.314287    0.000000    0.000000   -0.087880    0.131513
    -0.074959    0.423294    0.000000    0.000000    0.014976   -0.050949
    -0.578699   -0.080388    0.000000    0.000000    0.003879   -0.054643
     0.308451   -0.464390    0.000000    0.000000   -0.131120    0.088085
    -0.092978   -0.496414    0.000000    0.000000    0.000000    0.000000
     0.415862    0.013918    0.000000    0.000000    0.000000    0.000000
    -0.468003    0.389521    0.000000    0.000000    0.312480   -0.313208
    -0.013388   -0.420332    0.000000    0.000000    0.000000    0.000000
     0.495452    0.090000    0.000000    0.000000    0.000000    0.000000
    -0.388413    0.465603    0.000000    0.000000    0.312480   -0.313208
     0.207521   -0.716209   -0.350959    0.360830    0.000000    0.000000
     0.716361   -0.205877   -0.350959    0.360830    0.000000    0.000000
    -0.167503    0.169726   -0.350959    0.360830    0.312480   -0.313208
     0.000000    0.000000   -0.010565   -0.425689    0.000000    0.000000
     0.000000    0.000000    0.512529    0.096301    0.000000    0.000000
     0.000000    0.000000   -0.413726    0.498380    0.000000    0.000000
     0.000000    0.000000   -0.096236   -0.508443    0.000000    0.000000
     0.000000    0.000000    0.426858    0.013548    0.000000    0.000000
     0.000000    0.000000   -0.499397    0.415627    0.000000    0.000000
    -0.357414    0.354582    0.203774   -0.731496    0.000000    0.000000
    -0.357414    0.354582    0.726868   -0.209505    0.000000    0.000000
    -0.357414    0.354582   -0.199388    0.192574    0.000000    0.000000
     0.000000    0.000000    0.088382    0.506121    0.000000    0.000000
     0.000000    0.000000   -0.415524    0.003195    0.000000    0.000000
     0.000000    0.000000    0.529539   -0.436777    0.000000    0.000000
     0.000000    0.000000   -0.001892    0.413234    0.000000    0.000000
     0.000000    0.000000   -0.505798   -0.089692    0.000000    0.000000
     0.000000    0.000000    0.439264   -0.529664    0.000000    0.000000
     0.000000    0.000000   -0.047405    0.549689    0.000000    0.000000
     0.000000    0.000000   -0.551311    0.046763    0.000000    0.000000
     0.000000    0.000000    0.393751   -0.393210    0.000000    0.000000


    -0.345299    0.000000    0.000000   -0.333960    0.000000    0.000000
    -0.345317    0.000000    0.000000   -0.331698    0.000000    0.000000
     0.000000    0.000000    0.000000    0.000000   -0.338870    0.000000
     0.000000    0.000000    0.000000    0.000000   -0.340372    0.000000
    -0.458260    0.000000    0.000000    0.000000    0.000000    0.000000
    -0.456561    0.000000    0.000000    0.000000    0.000000    0.000000
     2.000000    0.000000    0.000000   -0.281234    0.000000    0.000000
     0.000000    2.000000   -0.173630   -0.293917   -0.301084    0.000000
     0.000000   -0.173630    2.000000   -0.285137   -0.297164    0.000000
    -0.281234   -0.293917   -0.285137    2.000000   -0.580620    0.000000
     0.000000   -0.301084   -0.297164   -0.580620    2.000000    0.000000
     0.000000    0.000000    0.000000    0.000000    0.000000    2.000000
     0.000000    0.000000    0.000000    0.000000    0.000000   -0.296505
     0.000000    0.000000    0.000000    0.000000    0.000000   -0.404628
     0.000000    0.000000    0.000000    0.000000   -0.452118   -0.345377
     0.487022    0.000000    0.000000    0.469422    0.000000    0.000000
     0.000000    0.000000    0.000000    0.000000    0.460325    0.000000
     0.735297    0.000000    0.000000    0.000000    0.000000    0.000000
    -0.369084    0.000000    0.000000    0.018073    0.000000    0.000000
    -0.368760    0.000000    0.000000    0.006618    0.000000    0.000000
    -0.453945    0.000000    0.000000    0.359586    0.000000    0.000000
    -0.453992    0.000000    0.000000    0.358399    0.000000    0.000000
     0.000000   -0.488452   -0.491478    0.343317    0.354704    0.000000
     0.367277    0.137328   -0.333776   -0.455925    0.136811    0.000000
     0.366361   -0.332821    0.137915   -0.456362    0.140783    0.000000
     0.202163   -0.335965    0.270189   -0.477015    0.522831    0.000000
     0.202321    0.272117   -0.336899   -0.475396    0.513984    0.000000
     0.000000   -0.337615    0.130192    0.150943   -0.454006    0.000000
     0.000000    0.139477   -0.336863    0.138640   -0.453787    0.000000
     0.000000   -0.339314    0.281051    0.525079   -0.475901    0.000000
     0.000000    0.281248   -0.339751    0.516176   -0.473580    0.000000
    -0.337292    0.408510    0.399785   -0.289704   -0.286175    0.000000
    -0.337304    0.201361    0.202078   -0.324265   -0.286164    0.000000
     0.000000    0.000000    0.000000    0.000000    0.000000   -0.321313
     0.000000    0.000000    0.000000    0.000000    0.000000   -0.321966
     0.000000    0.000000    0.000000    0.000000    0.000000    0.367153
     0.000000    0.000000    0.000000    0.000000    0.127068   -0.262761
     0.000000    0.000000    0.000000    0.000000    0.129176    0.285416
     0.000000    0.000000    0.000000    0.000000   -0.249731    0.289219
     0.000000    0.000000    0.000000    0.000000    0.404393    0.120053
     0.000000    0.000000    0.000000    0.000000    0.405779   -0.262625
     0.000000    0.197657    0.207188   -0.289603   -0.249740    0.133694
    -0.000000    0.000000    0.000000   -0.705938    0.000000    0.000000
     0.000000    0.000000    0.000000    0.372978    0.000000    0.000000
    -0.000000   -0.280247    0.280903   -0.166926    0.002553    0.000000
    -0.000000    0.000000    0.000000   -0.372644    0.000000    0.000000
     0.000000    0.000000    0.000000    0.706272    0.000000    0.000000
    -0.000000   -0.280247    0.280903    0.166368    0.002553    0.000000
     0.617995   -0.108635   -0.595917   -0.000000    0.497133    0.000000
    -0.451199    0.016124   -0.471629   -0.000000    0.320476    0.000000
     0.083027    0.078815   -0.658703   -0.000000    0.407360    0.000000
     0.454679    0.461966   -0.016214   -0.000000   -0.318754    0.000000
    -0.614515    0.586725    0.108075   -0.000000   -0.495411    0.000000
    -0.080288    0.649416   -0.078999    0.000000   -0.408527    0.000000
     0.532909   -0.631422    0.514562   -0.000000    0.089055    0.000000
    -0.536286   -0.506663    0.638851   -0.000000   -0.087602    0.000000
    -0.002059   -0.443972    0.451777    0.000000   -0.000718    0.000000
     0.000000   -0.012216    0.468050   -0.323531   -0.000000    0.000000
     0.000000    0.111970    0.597081   -0.504675   -0.000000    0.000000
     0.000000   -0.139798    0.717567   -0.408726   -0.000000    0.253607
     0.000000   -0.587530   -0.113031    0.503807   -0.000000    0.000000
     0.000000   -0.463344    0.016001    0.322663   -0.000000    0.000000
     0.000000   -0.715113    0.136486    0.418612   -0.000000    0.253607
     0.003546    0.508874   -0.642083    0.089063   -0.000000    0.000000
     0.003546    0.633060   -0.513052   -0.092081   -0.000000    0.000000
     0.003546    0.381292   -0.392566    0.003869    0.000000    0.253607
     0.000000    0.000000    0.000000    0.000000   -0.514787    0.064237
     0.000000    0.000000    0.000000    0.000000    0.356216    0.002340
     0.000000    0.309208   -0.301882   -0.008557   -0.079124   -0.114660
     0.000000    0.000000    0.000000    0.000000   -0.356332   -0.318279
     0.000000    0.000000    0.000000    0.000000    0.514671   -0.380176
     0.000000    0.309208   -0.301882   -0.008557    0.079331   -0.497176
     0.000000    0.000000    0.000000    0.000000   -0.435217    0.399644
     0.000000    0.000000    0.000000    0.000000    0.435786    0.337746
     0.000000    0.309208   -0.301882   -0.008557    0.000446    0.220746


     0.000000    0.000000    0.000000   -0.451301    0.000000    0.000000
     0.000000    0.000000    0.000000   -0.451251    0.000000    0.000000
     0.000000    0.000000   -0.265005    0.000000   -0.456056    0.000000
     0.000000    0.000000   -0.266741    0.000000   -0.456014    0.000000
     0.000000    0.000000    0.000000    0.000000    0.000000   -0.337862
     0.000000    0.000000    0.000000    0.000000    0.000000   -0.338491
     0.000000    0.000000    0.000000    0.487022    0.000000    0.735297
     0.000000    0.000000    0.000000    0.000000    0.000000    0.000000
     0.000000    0.000000    0.000000    0.000000    0.000000    0.000000
     0.000000    0.000000    0.000000    0.469422    0.000000    0.000000
     0.000000    0.000000   -0.452118    0.000000    0.460325    0.000000
    -0.296505   -0.404628   -0.345377    0.000000    0.000000    0.000000
     2.000000   -0.397732   -0.347966    0.000000    0.000000    0.000000
    -0.397732    2.000000   -0.202187    0.000000    0.000000    0.000000
    -0.347966   -0.202187    2.000000    0.000000    0.360366    0.000000
     0.000000    0.000000    0.000000    1.104454    0.000000    0.000000
     0.000000    0.000000    0.360366    0.000000    1.083881    0.000000
     0.000000    0.000000    0.000000    0.000000    0.000000    0.887855
     0.000000    0.000000    0.000000    0.012192    0.000000   -0.442688
     0.000000    0.000000    0.000000    0.004065    0.000000   -0.440701
     0.000000    0.000000    0.000000   -0.194251    0.000000    0.009398
     0.000000    0.000000    0.000000   -0.194322    0.000000    0.008154
     0.000000    0.000000    0.000000    0.000000    0.000000    0.000000
     0.000000    0.000000    0.000000   -0.173959    0.000000    0.000000
     0.000000    0.000000    0.000000   -0.174397    0.000000    0.000000
[...]
     0.035817    0.010586   -0.030090   -0.217521    0.246722    0.361743
     0.047919   -0.560655   -0.002949   -0.000200    0.001584    0.021876
     0.206503    0.164870    0.509728    0.119522   -0.007984   -0.008821
    -0.306645    0.011212   -0.081798   -0.102505   -0.103757   -0.091039
     0.260372    0.147334    0.597139    0.136105    0.006665    0.002289
     0.622788    0.011321   -0.280934   -0.005980   -0.079903   -0.067446
    -0.057356    0.588012   -0.135441   -0.038181    0.008857    0.013841
     0.108302   -0.001368    0.082871   -0.458428    0.575366   -0.389206
     0.142908   -0.009294   -0.111235    0.278627   -0.308421   -0.430895
    -0.013190   -0.382162   -0.006850   -0.012819    0.012136    0.006553
     0.039827    0.012830    0.028807   -0.003976    0.014873    0.062187
     0.142663   -0.016525   -0.002320   -0.061865    0.086394    0.339851
     0.100768   -0.146712    0.247784    0.054927    0.001033   -0.001617
    -0.289062    0.001348    0.166869    0.072270   -0.000115   -0.003440
     0.031334    0.013509    0.062023    0.052483   -0.001708    0.000923
    -0.026741   -0.092764   -0.061064   -0.008669   -0.000228   -0.000446
    -0.019216    0.001081   -0.135603    0.503785    0.231599    0.025492
    -0.014837   -0.017564   -0.036086   -0.006645    0.000524    0.000725
     0.003354   -0.017999    0.008194    0.002062    0.000492    0.000358
     0.000188   -0.011068    0.000659    0.000113   -0.000258    0.000045
    -0.000618    0.000713   -0.007828    0.025626   -0.075232   -0.049414
    -0.039523   -0.000041    0.012926    0.000299    0.000236    0.014940
    -0.001928   -0.000653   -0.000026   -0.006209    0.007031   -0.088251
     0.013333   -0.012764    0.033332    0.007234    0.000238    0.000222
     0.005858    0.046884    0.012333    0.002198    0.000172   -0.000979
     0.238779   -0.001464   -0.198299    0.002095   -0.007418   -0.042989
    -0.151167    0.001517   -0.002130    0.383418    0.117853    0.126033
     0.043541   -0.000498   -0.153121    0.428466    0.417395   -0.007308
     0.048448   -0.207296    0.124494    0.027190   -0.000376   -0.004853
    -0.127025    0.001265    0.071610    0.008967   -0.075869   -0.284001
    -0.014735    0.091739   -0.036949   -0.009596   -0.004110   -0.006373
    -0.012499    0.006548   -0.008739    0.048656    0.121192    0.087808
    -0.028862    0.182542   -0.032812    0.006987    0.048314   -0.029406
    -0.078945   -0.029681    0.013079    0.094020    0.301232   -0.189684
    -0.022522   -0.003785    0.007655   -0.052018   -0.142101   -0.041280
    -0.050906   -0.006212    0.026857   -0.031775   -0.142619    0.438147
     0.074598   -0.118928    0.181317    0.040449   -0.002499   -0.009220
    -0.014882   -0.004282   -0.018360    0.038075    0.259522   -0.007949
    -0.016969    0.002254    0.001872   -0.028675   -0.134309   -0.166745
     0.000000    0.088786    0.000000   -0.000000    0.001122   -0.000170


     0.083073   -0.013012   -0.013056   -0.004829   -0.004744    0.017457
     0.168934   -0.020117   -0.022656    0.034784    0.039430   -0.019139
     0.363030    0.029844    0.027832   -0.010065   -0.011045   -0.021671
     0.026726   -0.018204    0.015694    0.033570   -0.025374   -0.049100
    -0.008693    0.035069   -0.037440    0.034064   -0.032816    0.017083
     0.107519   -0.001656    0.000579    0.005099    0.001746    0.035744
    -0.003420   -0.014998    0.016038    0.034692   -0.035668   -0.051750
    -0.287294    0.059491    0.059424   -0.015141   -0.013930   -0.024199
     0.006746   -0.081893    0.082101    0.020409   -0.014956   -0.023292
     0.064319    0.032936    0.030985    0.027192    0.027442   -0.051727
     0.441898    0.116039    0.107328   -0.147119   -0.148407    0.008024
    -0.030269    0.093441   -0.107870    0.028926   -0.020647    0.141022
     0.069945   -0.067676    0.121206   -0.063376    0.105680    0.026964
     0.402347    0.166239    0.123379    0.135358    0.107101    0.247039
    -0.000616   -0.251863    0.252548   -0.286898    0.288089    0.071831
     0.042685    0.112514    0.112169   -0.002437   -0.003067   -0.006609
     0.005420   -0.031117   -0.030084    0.010614   -0.021135   -0.003195
     0.000688    0.014399   -0.022753   -0.131048    0.128799   -0.187204
     0.000473   -0.002641   -0.002886    0.076442    0.076680   -0.008284
    -0.000007   -0.192275    0.194471    0.079810   -0.078503    0.206005
    -0.000802    0.190957   -0.195585   -0.249146    0.250477   -0.348430
     0.000157   -0.178623    0.179587    0.158325   -0.150951    0.170480
     0.009203   -0.005941   -0.007503    0.619040    0.620874   -0.028961
    -0.066903    0.618873    0.616567    0.006522    0.007048   -0.091991
    -0.099495    0.045560    0.054859    0.001232   -0.008205    0.593003
     0.000673    0.243378   -0.244606    0.278157   -0.277613   -0.057013
    -0.002524    0.322131   -0.320666   -0.249475    0.249242    0.384669
    -0.045099    0.018427    0.021654   -0.020684   -0.021838    0.000268
     0.150991   -0.001476    0.000651   -0.051884   -0.047655   -0.013081
    -0.054445   -0.005856   -0.009499    0.093864    0.089962   -0.010623
     0.001177   -0.102597    0.104156   -0.199807    0.202106    0.000899
     0.027229    0.040330    0.040257    0.067515    0.060754   -0.004244
     0.009742   -0.171429    0.162216    0.010179   -0.009057   -0.031037
    -0.207300    0.063676    0.081032   -0.013036   -0.012872   -0.005994
    -0.046196    0.184371   -0.182121   -0.196622    0.199465    0.244119
    -0.285970   -0.033147    0.030490    0.022399   -0.045416    0.020633
     0.004355    0.113239    0.119435    0.150082    0.135370   -0.191135
    -0.412393    0.079760    0.068063   -0.049964   -0.064549   -0.013213
     0.012278    0.209843   -0.228457    0.258345   -0.250624    0.019561
     0.026225    0.161437    0.145309   -0.142412   -0.156982   -0.022156
    -0.167200    0.115710    0.104127    0.090665    0.091696    0.173442
     0.000876    0.128607   -0.131472   -0.104942    0.103985   -0.179719


     0.017600   -0.007712   -0.007540    0.000180   -0.000251    0.025243
    -0.027643    0.015242    0.013376   -0.005441    0.000799    0.014703
    -0.024392    0.001862    0.001017    0.034279    0.034881    0.033669
     0.042660    0.000722    0.003378    0.024589   -0.023604    0.001662
    -0.016542   -0.006166    0.006850   -0.004614    0.002504   -0.000969
     0.041234   -0.051072   -0.039509   -0.015128   -0.012004    0.098078
     0.046943   -0.089212    0.095379   -0.042154    0.044019   -0.006493
    -0.023840    0.028143    0.027656   -0.009199   -0.012595   -0.092250
     0.027016   -0.029136    0.030616    0.129814   -0.128005   -0.000532
    -0.051346   -0.005077   -0.005428    0.063851    0.064324   -0.009134
    -0.004956   -0.004893   -0.011231   -0.030281   -0.019075   -0.010878
    -0.150966    0.071427   -0.071521   -0.177179    0.179044    0.001305
     0.056380    0.012553   -0.015254    0.051426   -0.050055   -0.002386
     0.233221   -0.006381   -0.005144   -0.013611    0.020677   -0.010693
    -0.075544    0.001516   -0.002050   -0.249954    0.250000   -0.000006
    -0.006954    0.516627    0.508161    0.000794    0.000722    0.167771
    -0.043742    0.005684   -0.082507   -0.000904   -0.010015    0.662096
     0.179234   -0.377464    0.377987   -0.034681    0.033139    0.079844
    -0.007801    0.000695   -0.000112    0.563027    0.563451    0.009310
    -0.205490   -0.290213    0.293580    0.009310   -0.007118    0.002833
     0.349347    0.038708   -0.039269   -0.070386    0.071538    0.000540
    -0.180438   -0.003802    0.003530    0.001196   -0.001723    0.000347
    -0.026397    0.002457    0.002528   -0.072903   -0.073641    0.004081
    -0.087061   -0.086426   -0.085765    0.000515    0.000217   -0.026651
     0.598990    0.000203    0.000356    0.007774    0.008070    0.018549
     0.051119   -0.034344    0.034423   -0.045052    0.045676   -0.001480
    -0.370315   -0.065273    0.068214    0.075477   -0.075109    0.001485
     0.001132    0.283701    0.283181   -0.081482   -0.076446    0.383256
    -0.012224   -0.145270   -0.145267   -0.261641   -0.255268   -0.135279
    -0.010866    0.067425    0.069230   -0.299857   -0.308944   -0.000736
    -0.001531    0.138509   -0.143036    0.560051   -0.559089    0.002766
    -0.005410   -0.189823   -0.184366    0.003728    0.011446    0.119380
     0.034939    0.459872   -0.430809   -0.161443    0.162585   -0.025721
    -0.003145   -0.253745   -0.299995   -0.037438   -0.017179    0.526916
    -0.239062    0.123377   -0.108697   -0.121789    0.105860   -0.031742
     0.101592    0.016242    0.058477   -0.031013   -0.067443   -0.174626
    -0.180392    0.051318    0.051674    0.029117    0.024873   -0.079422
    -0.013602    0.030791    0.022865    0.019937    0.009171   -0.084513
    -0.018781    0.118355   -0.125099    0.129317   -0.128086    0.005653
    -0.023174    0.048994    0.039773   -0.027534   -0.035364   -0.045335
     0.175424    0.025191    0.020662    0.011707    0.012482   -0.025756
     0.176430    0.026577   -0.027197   -0.019566    0.019397    0.000471

 Minimum search - taking simple RFO step
 Searching for Lamda that Minimizes Along All modes
 in iterative cycle:  Lamda =   0.00000000 TEMP =  -0.07611117
 in iterative cycle:  Lamda =  -0.07611117 TEMP =  -0.05631036
 in iterative cycle:  Lamda =  -0.05631036 TEMP =  -0.05989335
 in iterative cycle:  Lamda =  -0.05989335 TEMP =  -0.05920764
 in iterative cycle:  Lamda =  -0.05920764 TEMP =  -0.05933750
 in iterative cycle:  Lamda =  -0.05933750 TEMP =  -0.05931285
 in iterative cycle:  Lamda =  -0.05931285 TEMP =  -0.05931753
 in iterative cycle:  Lamda =  -0.05931753 TEMP =  -0.05931664
 Value Taken    Lamda =  -0.05931753
 Calculated Step too Large.  Step scaled by  0.688794
 Step Taken.  Stepsize is  0.300000


     Parameter Values and Displacements in Internal Coordinates
  Coordinate  Current Value    Gradient  Displacement   New Value
       1           0.957748     0.018887    -0.043533     0.914215
       2           1.492751     0.064953    -0.162026     1.330725
       3           3.017164     0.019589    -0.045607     2.971557
       4          -0.767455     0.007787    -0.020196    -0.787651
       5           0.455018    -0.000321     0.002199     0.457217
       6           1.375614     0.007671    -0.024465     1.351149
       7          -1.193717     0.000295    -0.002910    -1.196627
       8           1.253892     0.055739    -0.104752     1.149140
       9           0.349099    -0.000427     0.001135     0.350234
      10           2.450143     0.024605    -0.049729     2.400414
      11          -1.625990     0.003362    -0.019226    -1.645216
      12           0.967622     0.000216     0.000608     0.968230
      13           0.778441     0.001710    -0.005230     0.773211
      14           3.743373     0.005334    -0.017059     3.726314
      15           1.089809    -0.000565     0.002025     1.091834
      16           5.298384    -0.071586     0.134168     5.432551
      17           3.706393    -0.053844     0.062641     3.769034
      18          -0.669097    -0.007863     0.006976    -0.662121
      19           4.194873    -0.010218     0.038239     4.233112
      20           0.145088     0.000013     0.000050     0.145138
      21          -0.130061    -0.001051     0.001898    -0.128163
      22          -0.254654     0.000472    -0.001497    -0.256151
      23           1.598020    -0.014357     0.021391     1.619410
      24           1.430914    -0.010045     0.030265     1.461179
      25           3.667822     0.011076    -0.009085     3.658737
      26           0.316463    -0.000474     0.001618     0.318081
      27          -0.192593     0.001661    -0.003707    -0.196301
      28           0.474483     0.009596    -0.065321     0.409162
      29           1.228422    -0.032175     0.087584     1.316006
      30          -0.301286    -0.013619     0.028734    -0.272552
      31           0.144328     0.001526    -0.001111     0.143218
      32          -1.501144    -0.025422     0.060072    -1.441072
      33          -1.093948     0.002655    -0.004196    -1.098145
      34          -1.201205    -0.035536     0.019659    -1.181546
      35          -1.186348     0.001908    -0.006601    -1.192950
      36          -1.220076     0.005982    -0.026356    -1.246432
      37           1.811617     0.000571    -0.006817     1.804800
      38           0.260924     0.005852    -0.011321     0.249603
      39           0.076180     0.000308    -0.000187     0.075993
      40          -0.122450     0.007415    -0.024897    -0.147347
      41          -0.959392     0.010650    -0.037155    -0.996547
      42           1.301240    -0.000880     0.002907     1.304147

                             Maximum     Tolerance    Cnvgd?
         Gradient           0.071586      ********     YES
         Displacement       0.162026      ********     YES
         Energy change     *********      0.100000      NO

 Final energy is   -889.40399148747895     


 ******************************
 **  OPTIMIZATION CONVERGED  **
 ******************************

                       Coordinates (Angstroms)
     ATOM                X               Y               Z
      1  O        19.4179968400    8.7724981900    3.1525765600
      2  O        19.4308648900    8.7726698900    5.6829223800
      3  O        21.4591512500    9.7120180100    4.4112439500
      4  O        19.4150782100    3.1097915400    5.5274429800
      5  O        19.3843467000    3.1161792600    3.2607486400
      6  H        21.9487310200    7.1134282200    3.5014181400
      7  H        21.9709176300    7.1150287200    5.2877531400
      8  H        21.7291576300    4.2599873100    5.2589292500
      9  H        21.6825102800    4.2913933100    3.4555364000
     10  H        19.8735554200    5.8587709700    5.2410325500
     11  H        19.8302540800    5.8761612000    3.6121235200
     12  C        21.1049060000    4.4222595200    4.3752555500
     13  C        21.3251231400    7.0735015800    4.4025674900
     14  C        19.8822301100    3.4437910700    4.3898221200
     15  N        20.5334104400    5.8146074300    4.4121863100
     16  P        20.3530804000    8.6943298400    4.4112028700

Z-matrix Print:
$molecule
-2 1
P 
O  1 1.503024
O  1 1.569915 2 113.867849
O  1 1.572860 2 113.436486 3 -123.037973 0
C  1 1.889980 2 101.664880 3 118.488840 0
H  5 1.096507 1 105.470414 2 57.076514 0
H  5 1.096609 1 105.367245 2 -58.266290 0
N  5 1.487184 1 116.879645 2 179.504273 0
H  8 1.060351 5 107.522731 1 -54.372137 0
H  8 1.066920 5 107.287365 1 52.423405 0
C  8 1.505524 5 125.494154 1 178.490378 0
H  11 1.093909 8 109.371872 5 -60.531358 0
H  11 1.094030 8 109.509304 5 61.440630 0
C  11 1.566062 8 106.333840 5 -179.509520 0
O  14 1.274350 11 117.274894 8 -86.804981 0
O  14 1.276724 11 117.165418 8 88.830528 0
$end


 --------------------------------------------------------------

                    Orbital Energies (a.u.)
 --------------------------------------------------------------

 Alpha MOs
 -- Occupied --
-76.0353 -18.4388 -18.4382 -18.3325 -18.3235 -18.3224 -13.8599  -9.7129
 -9.7021  -9.6533  -6.0046  -4.2241  -4.2219  -4.2217  -0.6682  -0.6442
 -0.5723  -0.5243  -0.4468  -0.4255  -0.4231  -0.3557  -0.2612  -0.2326
 -0.1967  -0.1607  -0.1399  -0.1015  -0.0926  -0.0899  -0.0672  -0.0653
  0.0032   0.0457   0.0505   0.0611   0.0689   0.0917   0.1244   0.1309
  0.1367   0.1511   0.1665   0.1999
 -- Virtual --
  0.2457   0.2718   0.2880   0.2891   0.3203   0.3305   0.3583   0.3731
  0.3991   0.4127   0.4623   0.4907   0.5230   0.5331   0.5419   0.5529
  0.6180   0.6281   0.6602   0.6825   0.7450   0.7466   0.7544   0.7671
  0.7770   0.7880   0.7899   0.8060   0.8246   0.8261   0.8578   0.8643
  0.8658   0.8805   0.9009   0.9366   0.9460   0.9707   1.0433   1.0481
  1.0907   1.0929   1.1045   1.1144   1.1437   1.1916   1.2195   1.2420
  1.2768   1.2908   1.2973   1.3118   1.3312   1.3463   1.3561   1.3605
  1.3833   1.3888   1.4013   1.4248   1.4368   1.4431   1.4720   1.5162
  1.5243   1.5537   1.5600   1.6296   1.7164   1.7173   1.7685   1.8066
  1.8124   1.8218   1.8303   1.8600   1.8806   1.8974   1.9258   1.9655
  1.9849   2.0447   2.0747   2.0885   2.1051   2.1070   2.1897   2.1990
  2.2243   2.2650   2.2942   2.3312   2.3712   2.3738   2.4150   2.4366
  2.5296   2.5387   2.6068   2.6157   2.6741   2.7083   2.8236   2.8262
  2.8556   2.8686   2.8840   2.9181   2.9190   2.9319   2.9394   2.9407
  2.9452   2.9580   2.9745   3.0273   3.0633   3.1294   3.1441   3.1796
  3.2940   3.2979   3.3201   3.3681   3.4177   3.5238   3.5420   3.5735
  3.5839   3.6746
 --------------------------------------------------------------

          Ground-State Mulliken Net Atomic Charges

     Atom                 Charge (a.u.)
  ----------------------------------------
      1 O                    -0.632275
      2 O                    -0.634903
      3 O                    -0.596237
      4 O                    -0.392299
      5 O                    -0.394442
      6 H                     0.000432
      7 H                    -0.000004
      8 H                    -0.010859
      9 H                    -0.009808
     10 H                     0.102311
     11 H                     0.105562
     12 C                     0.099760
     13 C                    -0.133158
     14 C                    -0.037387
     15 N                     0.033235
     16 P                     0.500073
  ----------------------------------------
  Sum of atomic charges =    -2.000000

 -----------------------------------------------------------------
                    Cartesian Multipole Moments
 -----------------------------------------------------------------
    Charge (ESU x 10^10)
                -9.6064
    Dipole Moment (Debye)
         X    -189.3877      Y     -69.6087      Z     -42.3521
       Tot     206.1718
    Quadrupole Moments (Debye-Ang)
        XX   -3811.3188     XY   -1389.9587     YY    -667.1176
        XZ    -835.1117     YZ    -307.2581     ZZ    -270.8990
    Octopole Moments (Debye-Ang^2)
       XXX  -78335.0125    XXY  -28287.8689    XYY  -13438.1023
       YYY   -6817.3192    XXZ  -16808.5665    XYZ   -6135.9504
       YYZ   -2945.4588    XZZ   -5374.4640    YZZ   -1907.5195
       ZZZ   -1935.3816
    Hexadecapole Moments (Debye-Ang^3)
      XXXX ************   XXXY -586777.4023   XXYY -274870.8705
      XYYY -138081.6699   YYYY  -70907.9654   XXXZ -345505.1902
      XXYZ -124883.0754   XYYZ  -59334.0296   YYYZ  -30100.3634
      XXZZ -108250.6117   XYZZ  -38200.2471   YYZZ  -17212.3367
      XZZZ  -38593.4328   YZZZ  -13276.7904   ZZZZ  -13744.9442
 -----------------------------------------------------------------
Archival summary:
1\1\Tims-MBP.fritz.box\OPT\ProcedureUnspecified\BasisUnspecified\15136(2-,1)\WedFeb317:34:262021WedFeb317:34:262021\0\\#,OPT,ProcedureUnspecified,BasisUnspecified,\\-2,1\P\O,1,1.50302\O,1,1.56991,2,113.868\O,1,1.57286,2,113.436,3,-123.038,0\C,1,1.88998,2,101.665,3,118.489,0\H,5,1.09651,1,105.47,2,57.0765,0\H,5,1.09661,1,105.367,2,-58.2663,0\N,5,1.48718,1,116.88,2,179.504,0\H,8,1.06035,5,107.523,1,-54.3721,0\H,8,1.06692,5,107.287,1,52.4234,0\C,8,1.50552,5,125.494,1,178.49,0\H,11,1.09391,8,109.372,5,-60.5314,0\H,11,1.09403,8,109.509,5,61.4406,0\C,11,1.56606,8,106.334,5,-179.51,0\O,14,1.27435,11,117.275,8,-86.805,0\O,14,1.27672,11,117.165,8,88.8305,0\\\@

 Total job time:  13.11s(wall), 136.00s(cpu) 
 Wed Feb  3 17:34:26 2021

        *************************************************************
        *                                                           *
        *  Thank you very much for using Q-Chem.  Have a nice day.  *
        *                                                           *
        *************************************************************


